ITEM: TIMESTEP
0
ITEM: NUMBER OF ATOMS
360
ITEM: BOX BOUNDS pp pp pp
0.0000000000000000e+00 6.6943295008216896e+00
0.0000000000000000e+00 6.6943295008216896e+00
0.0000000000000000e+00 6.6943295008216896e+00
ITEM: ATOMS id type xs ys zs
1 1 0 0 0
2 1 0.111572 0.111572 0
3 1 0.111572 0 0.111572
4 1 0 0.111572 0.111572
5 1 0.223144 0 0
8 1 0.223144 0.111572 0.111572
19 1 0 0.223144 0
21 1 0.111572 0.223144 0.111572
23 1 0.223144 0.223144 0
82 1 0 0 0.223144
83 1 0.111572 0.111572 0.223144
86 1 0.223144 0 0.223144
100 1 0 0.223144 0.223144
104 1 0.223144 0.223144 0.223144
6 1 0.334716 0.111572 0
7 1 0.334716 0 0.111572
9 1 0.446289 0 0
12 1 0.446289 0.111572 0.111572
25 1 0.334716 0.223144 0.111572
27 1 0.446289 0.223144 0
87 1 0.334716 0.111572 0.223144
90 1 0.446289 0 0.223144
108 1 0.446289 0.223144 0.223144
10 1 0.557861 0.111572 0
11 1 0.557861 0 0.111572
13 1 0.669433 0 0
16 1 0.669433 0.111572 0.111572
29 1 0.557861 0.223144 0.111572
31 1 0.669433 0.223144 0
91 1 0.557861 0.111572 0.223144
94 1 0.669433 0 0.223144
112 1 0.669433 0.223144 0.223144
14 1 0.781005 0.111572 0
15 1 0.781005 0 0.111572
17 1 0.892577 0 0
18 1 0.892577 0.111572 0.111572
33 1 0.781005 0.223144 0.111572
35 1 0.892577 0.223144 0
95 1 0.781005 0.111572 0.223144
98 1 0.892577 0 0.223144
116 1 0.892577 0.223144 0.223144
20 1 0.111572 0.334716 0
22 1 0 0.334716 0.111572
26 1 0.223144 0.334716 0.111572
37 1 0 0.446289 0
39 1 0.111572 0.446289 0.111572
41 1 0.223144 0.446289 0
101 1 0.111572 0.334716 0.223144
118 1 0 0.446289 0.223144
122 1 0.223144 0.446289 0.223144
24 1 0.334716 0.334716 0
30 1 0.446289 0.334716 0.111572
43 1 0.334716 0.446289 0.111572
45 1 0.446289 0.446289 0
105 1 0.334716 0.334716 0.223144
126 1 0.446289 0.446289 0.223144
28 1 0.557861 0.334716 0
34 1 0.669433 0.334716 0.111572
47 1 0.557861 0.446289 0.111572
49 1 0.669433 0.446289 0
109 1 0.557861 0.334716 0.223144
130 1 0.669433 0.446289 0.223144
32 1 0.781005 0.334716 0
36 1 0.892577 0.334716 0.111572
51 1 0.781005 0.446289 0.111572
53 1 0.892577 0.446289 0
113 1 0.781005 0.334716 0.223144
134 1 0.892577 0.446289 0.223144
38 1 0.111572 0.557861 0
40 1 0 0.557861 0.111572
44 1 0.223144 0.557861 0.111572
55 1 0 0.669433 0
57 1 0.111572 0.669433 0.111572
59 1 0.223144 0.669433 0
119 1 0.111572 0.557861 0.223144
136 1 0 0.669433 0.223144
140 1 0.223144 0.669433 0.223144
42 1 0.334716 0.557861 0
48 1 0.446289 0.557861 0.111572
61 1 0.334716 0.669433 0.111572
63 1 0.446289 0.669433 0
123 1 0.334716 0.557861 0.223144
144 1 0.446289 0.669433 0.223144
46 1 0.557861 0.557861 0
52 1 0.669433 0.557861 0.111572
65 1 0.557861 0.669433 0.111572
67 1 0.669433 0.669433 0
127 1 0.557861 0.557861 0.223144
148 1 0.669433 0.669433 0.223144
50 1 0.781005 0.557861 0
54 1 0.892577 0.557861 0.111572
69 1 0.781005 0.669433 0.111572
71 1 0.892577 0.669433 0
131 1 0.781005 0.557861 0.223144
152 1 0.892577 0.669433 0.223144
56 1 0.111572 0.781005 0
58 1 0 0.781005 0.111572
62 1 0.223144 0.781005 0.111572
73 1 0 0.892577 0
74 1 0.111572 0.892577 0.111572
75 1 0.223144 0.892577 0
137 1 0.111572 0.781005 0.223144
154 1 0 0.892577 0.223144
156 1 0.223144 0.892577 0.223144
60 1 0.334716 0.781005 0
66 1 0.446289 0.781005 0.111572
76 1 0.334716 0.892577 0.111572
77 1 0.446289 0.892577 0
141 1 0.334716 0.781005 0.223144
158 1 0.446289 0.892577 0.223144
64 1 0.557861 0.781005 0
70 1 0.669433 0.781005 0.111572
78 1 0.557861 0.892577 0.111572
79 1 0.669433 0.892577 0
145 1 0.557861 0.781005 0.223144
160 1 0.669433 0.892577 0.223144
68 1 0.781005 0.781005 0
72 1 0.892577 0.781005 0.111572
80 1 0.781005 0.892577 0.111572
81 1 0.892577 0.892577 0
149 1 0.781005 0.781005 0.223144
162 1 0.892577 0.892577 0.223144
84 1 0.111572 0 0.334716
85 1 0 0.111572 0.334716
89 1 0.223144 0.111572 0.334716
102 1 0.111572 0.223144 0.334716
163 1 0 0 0.446289
164 1 0.111572 0.111572 0.446289
167 1 0.223144 0 0.446289
181 1 0 0.223144 0.446289
185 1 0.223144 0.223144 0.446289
88 1 0.334716 0 0.334716
93 1 0.446289 0.111572 0.334716
106 1 0.334716 0.223144 0.334716
168 1 0.334716 0.111572 0.446289
171 1 0.446289 0 0.446289
189 1 0.446289 0.223144 0.446289
92 1 0.557861 0 0.334716
97 1 0.669433 0.111572 0.334716
110 1 0.557861 0.223144 0.334716
172 1 0.557861 0.111572 0.446289
175 1 0.669433 0 0.446289
193 1 0.669433 0.223144 0.446289
96 1 0.781005 0 0.334716
99 1 0.892577 0.111572 0.334716
114 1 0.781005 0.223144 0.334716
176 1 0.781005 0.111572 0.446289
179 1 0.892577 0 0.446289
197 1 0.892577 0.223144 0.446289
103 1 0 0.334716 0.334716
107 1 0.223144 0.334716 0.334716
120 1 0.111572 0.446289 0.334716
182 1 0.111572 0.334716 0.446289
199 1 0 0.446289 0.446289
203 1 0.223144 0.446289 0.446289
111 1 0.446289 0.334716 0.334716
124 1 0.334716 0.446289 0.334716
186 1 0.334716 0.334716 0.446289
207 1 0.446289 0.446289 0.446289
115 1 0.669433 0.334716 0.334716
128 1 0.557861 0.446289 0.334716
190 1 0.557861 0.334716 0.446289
211 1 0.669433 0.446289 0.446289
117 1 0.892577 0.334716 0.334716
132 1 0.781005 0.446289 0.334716
194 1 0.781005 0.334716 0.446289
215 1 0.892577 0.446289 0.446289
121 1 0 0.557861 0.334716
125 1 0.223144 0.557861 0.334716
138 1 0.111572 0.669433 0.334716
200 1 0.111572 0.557861 0.446289
217 1 0 0.669433 0.446289
221 1 0.223144 0.669433 0.446289
129 1 0.446289 0.557861 0.334716
142 1 0.334716 0.669433 0.334716
204 1 0.334716 0.557861 0.446289
225 1 0.446289 0.669433 0.446289
133 1 0.669433 0.557861 0.334716
146 1 0.557861 0.669433 0.334716
208 1 0.557861 0.557861 0.446289
229 1 0.669433 0.669433 0.446289
135 1 0.892577 0.557861 0.334716
150 1 0.781005 0.669433 0.334716
212 1 0.781005 0.557861 0.446289
233 1 0.892577 0.669433 0.446289
139 1 0 0.781005 0.334716
143 1 0.223144 0.781005 0.334716
155 1 0.111572 0.892577 0.334716
218 1 0.111572 0.781005 0.446289
235 1 0 0.892577 0.446289
237 1 0.223144 0.892577 0.446289
147 1 0.446289 0.781005 0.334716
157 1 0.334716 0.892577 0.334716
222 1 0.334716 0.781005 0.446289
239 1 0.446289 0.892577 0.446289
151 1 0.669433 0.781005 0.334716
159 1 0.557861 0.892577 0.334716
226 1 0.557861 0.781005 0.446289
241 1 0.669433 0.892577 0.446289
153 1 0.892577 0.781005 0.334716
161 1 0.781005 0.892577 0.334716
230 1 0.781005 0.781005 0.446289
243 1 0.892577 0.892577 0.446289
165 1 0.111572 0 0.557861
166 1 0 0.111572 0.557861
170 1 0.223144 0.111572 0.557861
183 1 0.111572 0.223144 0.557861
244 1 0 0 0.669433
245 1 0.111572 0.111572 0.669433
248 1 0.223144 0 0.669433
262 1 0 0.223144 0.669433
266 1 0.223144 0.223144 0.669433
169 1 0.334716 0 0.557861
174 1 0.446289 0.111572 0.557861
187 1 0.334716 0.223144 0.557861
249 1 0.334716 0.111572 0.669433
252 1 0.446289 0 0.669433
270 1 0.446289 0.223144 0.669433
173 1 0.557861 0 0.557861
178 1 0.669433 0.111572 0.557861
191 1 0.557861 0.223144 0.557861
253 1 0.557861 0.111572 0.669433
256 1 0.669433 0 0.669433
274 1 0.669433 0.223144 0.669433
177 1 0.781005 0 0.557861
180 1 0.892577 0.111572 0.557861
195 1 0.781005 0.223144 0.557861
257 1 0.781005 0.111572 0.669433
260 1 0.892577 0 0.669433
278 1 0.892577 0.223144 0.669433
184 1 0 0.334716 0.557861
188 1 0.223144 0.334716 0.557861
201 1 0.111572 0.446289 0.557861
263 1 0.111572 0.334716 0.669433
280 1 0 0.446289 0.669433
284 1 0.223144 0.446289 0.669433
192 1 0.446289 0.334716 0.557861
205 1 0.334716 0.446289 0.557861
267 1 0.334716 0.334716 0.669433
288 1 0.446289 0.446289 0.669433
196 1 0.669433 0.334716 0.557861
209 1 0.557861 0.446289 0.557861
271 1 0.557861 0.334716 0.669433
292 2 0.669433 0.446289 0.669433
198 1 0.892577 0.334716 0.557861
213 1 0.781005 0.446289 0.557861
275 1 0.781005 0.334716 0.669433
296 2 0.892577 0.446289 0.669433
202 1 0 0.557861 0.557861
206 1 0.223144 0.557861 0.557861
219 1 0.111572 0.669433 0.557861
281 1 0.111572 0.557861 0.669433
298 2 0 0.669433 0.669433
302 2 0.223144 0.669433 0.669433
210 1 0.446289 0.557861 0.557861
223 1 0.334716 0.669433 0.557861
285 1 0.334716 0.557861 0.669433
306 2 0.446289 0.669433 0.669433
214 1 0.669433 0.557861 0.557861
227 1 0.557861 0.669433 0.557861
289 2 0.557861 0.557861 0.669433
310 2 0.669433 0.669433 0.669433
216 1 0.892577 0.557861 0.557861
231 1 0.781005 0.669433 0.557861
293 2 0.781005 0.557861 0.669433
314 2 0.892577 0.669433 0.669433
220 1 0 0.781005 0.557861
224 1 0.223144 0.781005 0.557861
236 1 0.111572 0.892577 0.557861
299 2 0.111572 0.781005 0.669433
316 2 0 0.892577 0.669433
318 2 0.223144 0.892577 0.669433
228 1 0.446289 0.781005 0.557861
238 1 0.334716 0.892577 0.557861
303 2 0.334716 0.781005 0.669433
320 2 0.446289 0.892577 0.669433
232 1 0.669433 0.781005 0.557861
240 1 0.557861 0.892577 0.557861
307 2 0.557861 0.781005 0.669433
322 2 0.669433 0.892577 0.669433
234 1 0.892577 0.781005 0.557861
242 1 0.781005 0.892577 0.557861
311 2 0.781005 0.781005 0.669433
324 2 0.892577 0.892577 0.669433
246 1 0.111572 0 0.781005
247 1 0 0.111572 0.781005
251 1 0.223144 0.111572 0.781005
264 1 0.111572 0.223144 0.781005
325 2 0 0 0.892577
326 2 0.111572 0.111572 0.892577
327 2 0.223144 0 0.892577
334 2 0 0.223144 0.892577
336 2 0.223144 0.223144 0.892577
250 1 0.334716 0 0.781005
255 1 0.446289 0.111572 0.781005
268 1 0.334716 0.223144 0.781005
328 2 0.334716 0.111572 0.892577
329 2 0.446289 0 0.892577
338 2 0.446289 0.223144 0.892577
254 1 0.557861 0 0.781005
259 1 0.669433 0.111572 0.781005
272 1 0.557861 0.223144 0.781005
330 2 0.557861 0.111572 0.892577
331 2 0.669433 0 0.892577
340 2 0.669433 0.223144 0.892577
258 1 0.781005 0 0.781005
261 1 0.892577 0.111572 0.781005
276 1 0.781005 0.223144 0.781005
332 2 0.781005 0.111572 0.892577
333 2 0.892577 0 0.892577
342 2 0.892577 0.223144 0.892577
265 1 0 0.334716 0.781005
269 1 0.223144 0.334716 0.781005
282 1 0.111572 0.446289 0.781005
335 2 0.111572 0.334716 0.892577
343 2 0 0.446289 0.892577
345 2 0.223144 0.446289 0.892577
273 1 0.446289 0.334716 0.781005
286 1 0.334716 0.446289 0.781005
337 2 0.334716 0.334716 0.892577
347 2 0.446289 0.446289 0.892577
277 1 0.669433 0.334716 0.781005
290 2 0.557861 0.446289 0.781005
339 2 0.557861 0.334716 0.892577
349 2 0.669433 0.446289 0.892577
279 1 0.892577 0.334716 0.781005
294 2 0.781005 0.446289 0.781005
341 2 0.781005 0.334716 0.892577
351 2 0.892577 0.446289 0.892577
283 1 0 0.557861 0.781005
287 1 0.223144 0.557861 0.781005
300 2 0.111572 0.669433 0.781005
344 2 0.111572 0.557861 0.892577
352 2 0 0.669433 0.892577
354 2 0.223144 0.669433 0.892577
291 2 0.446289 0.557861 0.781005
304 2 0.334716 0.669433 0.781005
346 2 0.334716 0.557861 0.892577
356 2 0.446289 0.669433 0.892577
295 2 0.669433 0.557861 0.781005
308 2 0.557861 0.669433 0.781005
348 2 0.557861 0.557861 0.892577
358 2 0.669433 0.669433 0.892577
297 2 0.892577 0.557861 0.781005
312 2 0.781005 0.669433 0.781005
350 2 0.781005 0.557861 0.892577
360 2 0.892577 0.669433 0.892577
301 2 0 0.781005 0.781005
305 2 0.223144 0.781005 0.781005
317 2 0.111572 0.892577 0.781005
353 2 0.111572 0.781005 0.892577
309 2 0.446289 0.781005 0.781005
319 2 0.334716 0.892577 0.781005
355 2 0.334716 0.781005 0.892577
313 2 0.669433 0.781005 0.781005
321 2 0.557861 0.892577 0.781005
357 2 0.557861 0.781005 0.892577
315 2 0.892577 0.781005 0.781005
323 2 0.781005 0.892577 0.781005
359 2 0.781005 0.781005 0.892577
ITEM: TIMESTEP
10000
ITEM: NUMBER OF ATOMS
360
ITEM: BOX BOUNDS pp pp pp
0.0000000000000000e+00 6.6943295008216896e+00
0.0000000000000000e+00 6.6943295008216896e+00
0.0000000000000000e+00 6.6943295008216896e+00
ITEM: ATOMS id type xs ys zs
30 1 0.176677 0.106742 0.18966
136 1 0.195416 0.0205183 0.0419875
117 1 0.0655563 0.131971 0.125911
244 1 0.174815 0.187016 0.0610366
259 1 0.412223 0.218392 0.0483118
50 1 0.313708 0.116288 0.106646
162 1 0.452012 0.0882161 0.0606587
250 1 0.311158 0.0318363 0.193371
122 1 0.533673 0.162811 0.145143
12 1 0.579858 0.11139 0.0182768
16 1 0.631129 0.0301241 0.159387
64 1 0.615944 0.247149 0.108867
196 1 0.730838 0.0787754 0.0385641
71 1 0.757095 0.194767 0.124175
173 1 0.918461 0.234682 0.0582881
271 1 0.943756 0.115115 0.214234
303 2 0.860331 0.0541894 0.0392185
161 1 0.815875 0.0757615 0.190707
100 1 0.119307 0.416733 0.104841
58 1 0.194351 0.472252 0.241751
176 1 0.146128 0.255368 0.206336
142 1 0.052934 0.273137 0.0636174
130 1 0.0467469 0.370526 0.208027
5 1 0.258134 0.405161 0.0860222
298 2 0.48024 0.321538 0.249214
45 1 0.43133 0.450371 0.100419
203 1 0.345022 0.252758 0.15982
40 1 0.306439 0.490532 0.189003
2 1 0.491008 0.298647 0.144007
348 2 0.697919 0.321729 0.0440546
186 1 0.548626 0.423336 0.167301
18 1 0.667615 0.36875 0.140521
146 1 0.641791 0.256091 0.238672
20 1 0.705974 0.434676 0.000336812
103 1 0.810028 0.416262 0.142383
92 1 0.995193 0.418514 0.00238981
266 1 0.948112 0.424017 0.128878
98 1 0.927195 0.279034 0.208487
115 1 0.772846 0.295689 0.233087
319 2 0.889471 0.409254 0.0213499
214 1 0.205437 0.517391 0.0700187
25 1 0.176755 0.627368 0.195571
36 1 0.136217 0.673569 0.0671641
34 1 0.042712 0.525145 0.0983836
290 2 0.24865 0.723403 0.0288763
356 2 0.00307259 0.636545 0.00623578
1 1 0.0406782 0.641035 0.193575
310 2 0.200661 0.722986 0.145406
297 2 0.408805 0.552665 0.171337
150 1 0.33026 0.591346 0.0905066
107 1 0.497548 0.734852 0.0393913
21 1 0.423768 0.655931 0.193117
308 2 0.288668 0.617359 0.218158
90 1 0.306105 0.737129 0.142167
174 1 0.741628 0.561239 0.0761641
289 2 0.583458 0.512179 0.03475
13 1 0.704504 0.647662 0.161309
335 2 0.636797 0.74475 0.208904
113 1 0.508069 0.577063 0.107166
14 1 0.866138 0.665951 0.170148
42 1 0.763738 0.685773 0.0420381
337 2 0.96064 0.519686 0.215878
280 1 0.866014 0.545175 0.0031176
219 1 0.0894591 0.988365 0.169237
281 1 0.0426354 0.770353 0.102074
22 1 0.0460552 0.787585 0.249032
283 1 0.0363521 0.947666 0.0562
220 1 0.186863 0.884157 0.147139
231 1 0.318246 0.963343 0.0497
291 2 0.306599 0.868095 0.207459
238 1 0.453586 0.86884 0.187295
295 2 0.488229 0.982494 0.194899
197 1 0.406306 0.825775 0.0732353
164 1 0.280054 0.848623 0.00146562
254 1 0.479775 0.93312 0.0557331
132 1 0.647084 0.765925 0.0299018
188 1 0.733181 0.817612 0.19084
195 1 0.586431 0.872271 0.147455
88 1 0.676885 0.965798 0.047753
229 1 0.88782 0.955727 0.107516
131 1 0.908898 0.796594 0.0343061
309 2 0.893537 0.772152 0.139513
261 1 0.854091 0.81021 0.238181
275 1 0.779688 0.807518 0.0748257
224 1 0.973782 0.883874 0.158692
328 2 0.913072 0.969546 0.212783
69 1 0.756526 0.938399 0.142511
306 2 0.0434159 0.103545 0.258274
350 2 0.230727 0.179575 0.27216
7 1 0.0720011 0.0143924 0.318728
304 2 0.161924 0.0822905 0.340575
140 1 0.0346227 0.245657 0.289862
97 1 0.122042 0.217438 0.386091
63 1 0.116566 0.0131589 0.436528
352 2 0.263255 0.026821 0.326601
127 1 0.360448 0.115843 0.429756
85 1 0.391285 0.114657 0.290422
46 1 0.428956 0.249304 0.445279
124 1 0.518399 0.161385 0.431789
145 1 0.512165 0.027975 0.456631
114 1 0.712593 0.0580541 0.477337
276 1 0.553235 0.132297 0.315555
330 2 0.617063 0.214217 0.439227
133 1 0.715289 0.0373654 0.279846
194 1 0.810062 0.166044 0.281068
87 1 0.763064 0.1757 0.412141
149 1 0.848434 0.095658 0.474266
177 1 0.946841 0.245111 0.417271
73 1 0.981964 0.121355 0.350441
332 2 0.863029 0.044151 0.290403
336 2 0.959651 0.124082 0.462105
104 1 0.219391 0.294995 0.299881
253 1 0.143505 0.431061 0.494739
227 1 0.123162 0.378065 0.331593
317 2 0.066157 0.382079 0.435071
153 1 0.483864 0.446402 0.306717
218 1 0.252588 0.326007 0.430428
110 1 0.288889 0.442331 0.314324
178 1 0.454563 0.4251 0.460415
344 2 0.378964 0.459956 0.368118
166 1 0.259194 0.492558 0.455043
38 1 0.382889 0.268818 0.322097
185 1 0.54384 0.266318 0.334388
236 1 0.749327 0.403702 0.32071
326 2 0.522035 0.334165 0.429183
217 1 0.687159 0.300361 0.41514
126 1 0.660684 0.424093 0.453971
247 1 0.611463 0.377504 0.325709
191 1 0.904611 0.340976 0.32083
134 1 0.865107 0.483961 0.284357
208 1 0.994503 0.443903 0.331589
242 1 0.949216 0.373598 0.458988
264 1 0.824338 0.362347 0.444834
333 2 0.829668 0.276484 0.356016
237 1 0.223785 0.582893 0.300909
3 1 0.133574 0.545153 0.43326
157 1 0.187804 0.709116 0.469605
240 1 0.119683 0.64515 0.337707
243 1 0.00822456 0.552338 0.425949
288 1 0.0695707 0.536296 0.267842
111 1 0.393497 0.55462 0.324311
235 1 0.268006 0.703544 0.287374
327 2 0.374855 0.720802 0.33044
325 2 0.394463 0.503228 0.477895
28 1 0.431028 0.607402 0.448281
273 1 0.268146 0.635338 0.420764
198 1 0.654101 0.585654 0.264285
320 2 0.60579 0.514454 0.371235
245 1 0.511569 0.674866 0.321599
152 1 0.520529 0.523347 0.48588
354 2 0.713818 0.63951 0.442868
60 1 0.588399 0.662007 0.417505
193 1 0.71054 0.677909 0.32911
155 1 0.505268 0.723938 0.485949
347 2 0.89996 0.696532 0.292853
160 1 0.773833 0.56505 0.369473
359 2 0.872918 0.522009 0.39738
141 1 0.917777 0.642816 0.420287
234 1 0.951133 0.583795 0.313534
171 1 0.833707 0.563404 0.494795
338 2 0.169557 0.770742 0.354348
339 2 0.1354 0.90793 0.283564
278 1 0.0106722 0.885651 0.467161
95 1 0.033278 0.757677 0.39042
269 1 0.151738 0.876028 0.449805
257 1 0.426043 0.986283 0.325176
282 1 0.314599 0.918637 0.304919
246 1 0.293143 0.987336 0.416973
39 1 0.357513 0.842439 0.410389
213 1 0.536667 0.802514 0.261169
48 1 0.536003 0.844407 0.389912
169 1 0.652289 0.808948 0.336688
10 1 0.560298 0.951854 0.280789
226 1 0.637218 0.964675 0.394928
241 1 0.738403 0.901588 0.287349
175 1 0.686917 0.782486 0.464562
99 1 0.709397 0.922206 0.489243
222 1 0.964053 0.877471 0.306099
286 1 0.817138 0.97634 0.393986
147 1 0.912428 0.760992 0.385715
158 1 0.831565 0.751845 0.47608
74 1 0.971195 0.993672 0.425096
143 1 0.888224 0.878043 0.440039
23 1 0.23025 0.166598 0.524546
263 1 0.241161 0.14227 0.656778
260 1 0.15766 0.0466778 0.608398
53 1 0.175993 0.0557495 0.74828
301 2 0.0196457 0.111274 0.673498
35 1 0.100338 0.156609 0.532237
228 1 0.0477124 0.229603 0.644866
267 1 0.477465 0.0710499 0.589161
204 1 0.381499 0.0962493 0.694384
9 1 0.415175 0.19362 0.585039
358 2 0.313442 0.0581141 0.573425
168 1 0.398559 0.224534 0.737966
15 1 0.612162 0.00543182 0.565005
26 1 0.531625 0.0107261 0.703118
76 1 0.507347 0.218305 0.675529
232 1 0.570038 0.158339 0.570842
137 1 0.711494 0.238643 0.533207
144 1 0.727487 0.140112 0.611173
357 2 0.645406 0.229325 0.646955
138 1 0.99143 0.10246 0.555791
51 1 0.753568 0.233576 0.718268
116 1 0.886774 0.148889 0.60368
77 1 0.998739 0.00566246 0.722502
300 2 0.865535 0.248402 0.69162
285 1 0.861369 0.0935178 0.740639
120 1 0.0878964 0.304969 0.54349
202 1 0.180398 0.287063 0.712391
318 2 0.190531 0.364934 0.593961
209 1 0.0118673 0.474997 0.539128
55 1 0.132598 0.442642 0.672086
255 1 0.00646181 0.334264 0.724638
19 1 0.00250095 0.462989 0.684045
83 1 0.332876 0.354406 0.661765
163 1 0.471307 0.35985 0.584808
165 1 0.330145 0.310915 0.532626
190 1 0.435083 0.42308 0.700466
313 2 0.458614 0.489884 0.598038
56 1 0.337498 0.482894 0.557971
79 1 0.274413 0.461052 0.735971
287 1 0.579048 0.323189 0.51203
312 2 0.588213 0.324004 0.657336
105 1 0.573688 0.452341 0.662609
322 2 0.604876 0.464556 0.544957
316 2 0.688847 0.358388 0.549868
307 2 0.714853 0.373914 0.7245
268 1 0.925171 0.294193 0.596833
284 1 0.770761 0.46562 0.666985
67 1 0.86104 0.440701 0.540509
321 2 0.905024 0.429257 0.642254
32 1 0.872379 0.366714 0.749521
272 1 0.782322 0.339121 0.639691
44 1 0.0659729 0.597536 0.5614
101 1 0.209091 0.520587 0.613532
81 1 0.217025 0.613113 0.71784
179 1 0.113204 0.677026 0.647229
212 1 0.356734 0.558897 0.655751
343 2 0.351584 0.607734 0.550625
125 1 0.421584 0.690025 0.704212
274 1 0.287269 0.689305 0.598672
75 1 0.51709 0.592415 0.598283
172 1 0.698201 0.542646 0.543837
277 1 0.633483 0.675776 0.54011
331 2 0.658146 0.603777 0.689981
106 1 0.573866 0.72829 0.645477
66 1 0.558531 0.630252 0.748138
292 2 0.702903 0.729538 0.696848
159 1 0.948568 0.704909 0.55135
345 2 0.868504 0.704489 0.65043
102 1 0.940061 0.593615 0.656865
11 1 0.780686 0.635322 0.594207
207 1 0.97074 0.723027 0.681619
108 1 0.236582 0.758003 0.725679
262 1 0.221001 0.937705 0.562429
57 1 0.0917146 0.769771 0.742884
180 1 0.0654313 0.947678 0.60766
170 1 0.0492376 0.80036 0.601438
65 1 0.134648 0.938339 0.722895
192 1 0.395688 0.972416 0.517266
182 1 0.324522 0.976895 0.675318
6 1 0.468109 0.930003 0.612333
323 2 0.428488 0.753891 0.605555
61 1 0.354629 0.848485 0.618127
148 1 0.251147 0.815503 0.53454
4 1 0.47006 0.823301 0.702317
346 2 0.558302 0.843906 0.661947
135 1 0.5598 0.853982 0.543313
78 1 0.665785 0.889914 0.636368
47 1 0.729463 0.788608 0.596282
33 1 0.85797 0.989795 0.570765
8 1 0.858452 0.805231 0.718601
340 2 0.764656 0.956741 0.64769
360 2 0.771862 0.975617 0.742904
351 2 0.917481 0.841918 0.553979
211 1 0.877991 0.949676 0.697766
68 1 0.978517 0.851416 0.707739
112 1 0.0392985 0.242897 0.907697
167 1 0.103109 0.0548157 0.866503
187 1 0.0171436 0.0705351 0.998217
215 1 0.16983 0.154146 0.937375
279 1 0.188788 0.165981 0.805597
329 2 0.0891942 0.171769 0.850427
24 1 0.425531 0.0218053 0.844774
123 1 0.277278 0.211225 0.996427
302 2 0.444102 0.10833 0.951167
156 1 0.329123 0.126246 0.841869
86 1 0.322237 0.0491017 0.953197
221 1 0.524807 0.235615 0.975708
311 2 0.562062 0.125172 0.912644
52 1 0.64455 0.192624 0.938502
129 1 0.602872 0.0496132 0.835938
96 1 0.695643 0.0844282 0.75653
239 1 0.512967 0.160867 0.807299
305 2 0.664856 0.0683611 0.933133
183 1 0.937945 0.0904937 0.857353
299 2 0.815694 0.143449 0.836075
128 1 0.894362 0.193505 0.788227
200 1 0.81913 0.140967 0.952377
252 1 0.111839 0.463255 0.957235
265 1 0.238925 0.402424 0.937957
296 2 0.111158 0.356685 0.876782
94 1 0.206915 0.283406 0.913258
248 1 0.0970802 0.431404 0.793332
223 1 0.408298 0.356233 0.970995
84 1 0.366074 0.492544 0.991346
119 1 0.324383 0.311876 0.862641
118 1 0.466642 0.493818 0.925298
80 1 0.597295 0.444655 0.912162
314 2 0.65027 0.317459 0.9136
72 1 0.505196 0.37218 0.852907
206 1 0.633637 0.41969 0.791293
49 1 0.57113 0.284175 0.777443
62 1 0.778638 0.251418 0.864357
181 1 0.941162 0.333297 0.893348
199 1 0.919745 0.450434 0.851051
154 1 0.772567 0.416669 0.84069
355 2 0.156222 0.605965 0.96744
349 2 0.018751 0.682512 0.791494
54 1 0.174669 0.533808 0.85808
256 1 0.112327 0.67104 0.843658
293 2 0.38683 0.584877 0.927926
270 1 0.343691 0.647059 0.808576
205 1 0.278402 0.640853 0.917186
342 2 0.359283 0.521156 0.852603
109 1 0.487588 0.749738 0.912852
324 2 0.281972 0.565263 0.995088
201 1 0.381364 0.680394 0.986069
70 1 0.440012 0.558954 0.790774
139 1 0.498649 0.613045 0.933005
29 1 0.632498 0.595934 0.970964
82 1 0.648808 0.555849 0.834388
37 1 0.734086 0.666964 0.787267
210 1 0.741381 0.741026 0.921503
341 2 0.584751 0.645605 0.876319
216 1 0.998627 0.550267 0.796983
315 2 0.84154 0.519982 0.753104
41 1 0.756283 0.562301 0.919304
184 1 0.887558 0.704261 0.823071
121 1 0.883665 0.67435 0.9668
233 1 0.111849 0.758154 0.957535
230 1 0.183755 0.925886 0.90024
334 2 0.114135 0.859738 0.86524
91 1 0.222377 0.776395 0.881723
294 2 0.0434465 0.965987 0.817306
249 1 0.382325 0.89676 0.938518
93 1 0.293048 0.97967 0.819818
17 1 0.332637 0.851413 0.761439
151 1 0.569718 0.987307 0.950633
258 1 0.686181 0.915858 0.772509
353 2 0.53975 0.753702 0.768586
251 1 0.634261 0.776867 0.827158
27 1 0.615823 0.86196 0.941635
189 1 0.70883 0.933897 0.899776
31 1 0.508399 0.896613 0.848307
89 1 0.811149 0.912954 0.992558
225 1 0.801855 0.822535 0.850705
43 1 0.928898 0.917188 0.929329
59 1 0.981702 0.793537 0.870595
