ITEM: TIMESTEP
0
ITEM: NUMBER OF ATOMS
360
ITEM: BOX BOUNDS pp pp pp
0.0000000000000000e+00 6.6943295008216896e+00
0.0000000000000000e+00 6.6943295008216896e+00
0.0000000000000000e+00 6.6943295008216896e+00
ITEM: ATOMS id type xs ys zs
162 1 0.0908285 0.196415 0.0912269
319 2 0.197586 0.122729 0.0811593
204 1 0.19504 0.0199133 0.158892
229 1 0.0439163 0.0694227 0.163852
315 2 0.154868 0.141413 0.213349
169 1 0.114669 0.0187338 0.0272924
12 1 0.275745 0.1608 0.17318
89 1 0.409376 0.0972656 0.206807
155 1 0.423275 0.0647323 0.0615213
196 1 0.490093 0.205342 0.130348
95 1 0.310657 0.152556 0.0234358
19 1 0.563417 0.0679034 0.153066
31 1 0.727792 0.0427305 0.0974711
346 2 0.663651 0.0726819 0.240161
277 1 0.590746 0.122773 0.0114502
336 2 0.749326 0.224796 0.0979929
50 1 0.767657 0.145494 0.193037
189 1 0.942533 0.180826 0.136402
45 1 0.839503 0.171464 0.0131205
245 1 0.884243 0.0442244 0.0684181
320 2 0.919618 0.0685168 0.201632
197 1 0.804555 0.0207185 0.248637
304 2 0.947349 0.246887 0.0179609
223 1 0.161872 0.285202 0.199908
3 1 0.237946 0.407592 0.169084
99 1 0.0647807 0.357756 0.0716674
284 1 0.211457 0.297878 0.0633477
103 1 0.177084 0.46393 0.00698035
269 1 0.327764 0.405248 0.0143323
280 1 0.35852 0.282653 0.102666
281 1 0.485214 0.333633 0.197873
28 1 0.387232 0.450876 0.148479
206 1 0.499893 0.417398 0.0568827
208 1 0.62731 0.251728 0.173912
125 1 0.613763 0.426259 0.170564
77 1 0.702843 0.352069 0.0656398
147 1 0.573209 0.292949 0.0168618
101 1 0.648702 0.495643 0.0225338
110 1 0.769313 0.301589 0.208297
148 1 0.999855 0.339065 0.203385
228 1 0.855892 0.318586 0.0809112
295 2 0.798587 0.408485 0.15536
123 1 0.930452 0.442312 0.117588
289 2 0.885198 0.287937 0.246025
254 1 0.801651 0.473868 0.040684
302 2 0.964862 0.491582 0.223519
109 1 0.0823497 0.510551 0.162409
231 1 0.163376 0.623466 0.215616
179 1 0.130204 0.61246 0.0684975
200 1 0.258781 0.71854 0.10752
8 1 0.284838 0.55971 0.0922154
232 1 0.387429 0.641313 0.190302
55 1 0.390488 0.677215 0.0347984
202 1 0.499659 0.535693 0.206817
158 1 0.738941 0.509928 0.218184
257 1 0.509372 0.58626 0.0493357
286 1 0.518669 0.708718 0.145963
53 1 0.636198 0.610963 0.162223
133 1 0.667775 0.674052 0.0269288
331 2 0.756939 0.591097 0.113417
74 1 0.751287 0.707239 0.172895
34 1 0.989191 0.664243 0.16423
149 1 0.861784 0.56976 0.183695
290 2 0.916678 0.550508 0.0640713
252 1 0.842592 0.646797 0.0489855
13 1 0.976305 0.668389 0.00869104
212 1 0.107093 0.755653 0.14225
221 1 0.182636 0.871568 0.0342978
253 1 0.0796361 0.915438 0.141352
141 1 0.227431 0.862544 0.194354
217 1 0.0232467 0.824003 0.0240312
2 1 0.330749 0.945827 0.101988
60 1 0.381811 0.808714 0.148853
156 1 0.328076 0.821758 0.00840514
292 2 0.45704 0.983575 0.169753
65 1 0.470555 0.904855 0.0692374
159 1 0.513604 0.87781 0.213242
183 1 0.663749 0.936506 0.191752
129 1 0.620065 0.816605 0.107525
67 1 0.624384 0.755213 0.24841
214 1 0.619562 0.958276 0.0451058
323 2 0.989424 0.975445 0.084409
51 1 0.970132 0.806718 0.236882
355 2 0.795771 0.767769 0.0165668
184 1 0.792747 0.851531 0.236281
17 1 0.90336 0.779845 0.108365
360 2 0.889461 0.901074 0.050517
84 1 0.911317 0.930817 0.181074
273 1 0.770323 0.864774 0.0832778
36 1 0.0834313 0.205736 0.463031
161 1 0.10218 0.0803994 0.331372
43 1 0.0469357 0.205678 0.253992
287 1 0.23547 0.124378 0.441711
59 1 0.216154 0.19767 0.314764
176 1 0.0744574 0.0394721 0.474806
187 1 0.270329 0.057035 0.284259
270 1 0.364824 0.168401 0.352345
354 2 0.40515 0.035537 0.324918
46 1 0.481977 0.0753965 0.414257
121 1 0.381458 0.228429 0.495045
165 1 0.671328 0.0503863 0.368599
5 1 0.524932 0.183553 0.283942
134 1 0.679703 0.197308 0.30609
114 1 0.603652 0.174863 0.431651
56 1 0.543379 0.0122234 0.288319
167 1 0.765842 0.157479 0.456368
87 1 0.893317 0.166442 0.28909
242 1 0.919839 0.137016 0.435913
291 2 0.784183 0.108853 0.326774
152 1 0.953945 0.0174559 0.318318
38 1 0.822316 0.0106267 0.410227
308 2 0.128193 0.380291 0.25921
132 1 0.116292 0.296915 0.35682
263 1 0.139003 0.426945 0.452997
267 1 0.215422 0.284335 0.496226
154 1 0.241088 0.383595 0.337397
210 1 0.0205792 0.423503 0.32161
146 1 0.010783 0.349117 0.499085
75 1 0.34047 0.290679 0.259356
317 2 0.309756 0.279262 0.390553
72 1 0.446009 0.310646 0.353468
251 1 0.389618 0.444019 0.309143
262 1 0.350898 0.377871 0.455866
235 1 0.497223 0.451918 0.431697
330 2 0.513327 0.421583 0.286225
326 2 0.706091 0.265336 0.422408
11 1 0.603626 0.335863 0.307205
66 1 0.735693 0.403521 0.329276
233 1 0.58973 0.334798 0.481738
27 1 0.865124 0.418772 0.255736
18 1 0.96578 0.286553 0.36169
25 1 0.813148 0.272212 0.35912
104 1 0.873403 0.420528 0.41512
39 1 0.130116 0.523235 0.323217
312 2 0.10321 0.570142 0.439785
86 1 0.187683 0.656599 0.387504
48 1 0.0680188 0.692556 0.466559
63 1 0.0940004 0.748453 0.304545
73 1 0.268358 0.530812 0.25112
32 1 0.272718 0.715566 0.264265
131 1 0.267757 0.523694 0.420459
299 2 0.27624 0.632514 0.478115
164 1 0.386614 0.608266 0.346431
113 1 0.319156 0.733824 0.429216
243 1 0.406681 0.58531 0.495284
80 1 0.488782 0.71934 0.477015
57 1 0.521383 0.654815 0.309369
130 1 0.6066 0.501067 0.318456
4 1 0.577899 0.592674 0.438052
81 1 0.640947 0.736433 0.416888
186 1 0.712878 0.642008 0.322687
42 1 0.719655 0.525152 0.421666
236 1 0.98987 0.612579 0.303246
241 1 0.992094 0.516494 0.439621
294 2 0.947147 0.635261 0.433034
261 1 0.859133 0.548012 0.347288
191 1 0.812625 0.699706 0.419648
49 1 0.864788 0.700941 0.267667
172 1 0.84495 0.562705 0.495785
82 1 0.0642395 0.903987 0.330373
230 1 0.0940035 0.85163 0.476069
70 1 0.181 0.972214 0.404254
316 2 0.190029 0.957351 0.267295
91 1 0.206413 0.835525 0.342403
97 1 0.408068 0.773311 0.298683
62 1 0.364999 0.925506 0.265432
298 2 0.335514 0.862088 0.381077
112 1 0.331307 0.991677 0.424833
144 1 0.467075 0.904191 0.366145
168 1 0.252519 0.867917 0.481446
279 1 0.705493 0.934782 0.463959
293 2 0.546926 0.781995 0.34589
35 1 0.635669 0.883222 0.335831
348 2 0.572055 0.972105 0.411831
193 1 0.558984 0.866008 0.485294
321 2 0.72953 0.769035 0.322962
313 2 0.738036 0.936659 0.315615
124 1 0.952397 0.938014 0.449275
349 2 0.912029 0.89999 0.30592
248 1 0.802551 0.855885 0.382309
234 1 0.956935 0.788907 0.394095
9 1 0.152456 0.133452 0.579981
285 1 0.151912 0.11159 0.736013
342 2 0.0314852 0.119629 0.662366
275 1 0.071611 0.244835 0.70915
314 2 0.278441 0.177564 0.563089
181 1 0.277726 0.0797134 0.660881
207 1 0.375574 0.194017 0.645177
249 1 0.38639 0.0656801 0.549345
216 1 0.429312 0.0296332 0.722779
296 2 0.493663 0.0575726 0.624098
177 1 0.509267 0.16869 0.552182
37 1 0.609782 0.0407648 0.514322
94 1 0.645889 0.100099 0.657905
255 1 0.509298 0.157709 0.708253
274 1 0.746515 0.00995327 0.716073
195 1 0.68155 0.242771 0.566426
127 1 0.985386 0.212901 0.582268
303 2 0.862807 0.150225 0.571801
20 1 0.771006 0.0472367 0.567694
239 1 0.947457 0.0513484 0.551277
47 1 0.773518 0.182788 0.668837
213 1 0.914319 0.116412 0.68634
250 1 0.234103 0.254818 0.652878
301 2 0.093345 0.288402 0.579213
264 1 0.173143 0.391586 0.603531
185 1 0.0315487 0.389461 0.651475
341 2 0.0626991 0.467822 0.552678
340 2 0.45922 0.342095 0.517792
180 1 0.295775 0.495326 0.56929
218 1 0.352764 0.349967 0.601111
145 1 0.48029 0.444415 0.59468
92 1 0.614321 0.497355 0.541323
192 1 0.737524 0.371627 0.502935
338 2 0.510568 0.394434 0.716663
150 1 0.508523 0.293858 0.631088
205 1 0.632782 0.259065 0.710304
151 1 0.626079 0.403123 0.662258
166 1 0.854367 0.27897 0.515453
271 1 0.784517 0.352393 0.670956
322 2 0.914942 0.310171 0.629526
10 1 0.890148 0.430403 0.574425
174 1 0.914298 0.268313 0.748838
26 1 0.917346 0.492094 0.711858
259 1 0.75735 0.483791 0.606258
64 1 0.209336 0.513787 0.718279
209 1 0.0630851 0.536199 0.70891
1 1 0.159186 0.57096 0.556696
118 1 0.11116 0.681127 0.64618
126 1 0.206044 0.739568 0.536619
100 1 0.366346 0.719437 0.580759
256 1 0.26819 0.643659 0.649672
188 1 0.403409 0.562362 0.678115
108 1 0.409004 0.705516 0.730984
352 2 0.606132 0.72709 0.544283
96 1 0.690502 0.632708 0.5392
83 1 0.544706 0.624949 0.607053
307 2 0.647893 0.56487 0.647526
246 1 0.670648 0.743134 0.657363
182 1 0.565137 0.523266 0.732688
224 1 0.986888 0.560547 0.589095
339 2 0.805278 0.693497 0.555762
175 1 0.941238 0.702094 0.53992
238 1 0.81704 0.615812 0.647707
7 1 0.962037 0.675779 0.694432
332 2 0.766892 0.715856 0.737958
44 1 0.185844 0.987998 0.563774
351 2 0.0542354 0.771968 0.572545
344 2 0.0350996 0.955739 0.550835
226 1 0.116457 0.854015 0.642154
69 1 0.0664152 0.990926 0.666267
68 1 0.220854 0.956523 0.731073
334 2 0.470189 0.990264 0.502763
260 1 0.267587 0.815739 0.653499
157 1 0.413064 0.864729 0.501263
79 1 0.333632 0.947845 0.619502
309 2 0.401082 0.837814 0.630311
272 1 0.493523 0.938226 0.610716
29 1 0.381978 0.867971 0.746121
266 1 0.73453 0.788906 0.523203
142 1 0.582102 0.978209 0.74009
22 1 0.514303 0.782764 0.627681
119 1 0.666847 0.914686 0.609861
337 2 0.865041 0.794193 0.508096
106 1 0.891464 0.954221 0.673156
41 1 0.965486 0.853212 0.577312
24 1 0.845758 0.781922 0.667961
23 1 0.829346 0.906307 0.549373
117 1 0.981351 0.825985 0.726955
143 1 0.174126 0.175994 0.94612
282 1 0.233859 0.211565 0.809973
178 1 0.14414 0.0472237 0.875565
116 1 0.0233757 0.158342 0.826839
16 1 0.261354 0.018649 0.985215
318 2 0.375737 0.0890936 0.930509
71 1 0.383919 0.1571 0.812208
173 1 0.456038 0.190662 0.95323
76 1 0.491872 0.0681552 0.858402
21 1 0.327921 0.00726898 0.835823
329 2 0.515188 0.0176483 0.967427
324 2 0.591294 0.0940049 0.784838
276 1 0.643686 0.0218434 0.884781
219 1 0.707971 0.141741 0.803565
353 2 0.744966 0.0973208 0.953343
15 1 0.574742 0.245051 0.870001
160 1 0.704427 0.234611 0.967771
170 1 0.9907 0.124279 0.990619
136 1 0.990635 0.005076 0.796735
333 2 0.829913 0.182397 0.788024
88 1 0.871615 0.0974194 0.879233
356 2 0.760809 0.0225505 0.842467
258 1 0.0483304 0.260618 0.94769
311 2 0.117496 0.277264 0.824254
111 1 0.149901 0.369783 0.750053
222 1 0.187546 0.338006 0.905566
328 2 0.0731491 0.398516 0.937913
163 1 0.017547 0.369777 0.826192
30 1 0.107082 0.499807 0.855494
61 1 0.31302 0.344829 0.769734
93 1 0.462554 0.359648 0.92035
283 1 0.275368 0.465997 0.876909
128 1 0.417725 0.452118 0.78886
58 1 0.333272 0.278482 0.918296
85 1 0.46113 0.298964 0.779306
265 1 0.73493 0.449525 0.77865
40 1 0.588769 0.394465 0.819653
358 2 0.593562 0.394333 0.960874
278 1 0.714298 0.401796 0.915866
52 1 0.746166 0.29304 0.806876
215 1 0.939885 0.379152 0.965558
327 2 0.962763 0.482647 0.816528
357 2 0.803918 0.308108 0.959187
227 1 0.894572 0.253134 0.892258
194 1 0.860202 0.408115 0.834459
220 1 0.0275863 0.510554 0.997337
306 2 0.0675244 0.730471 0.757684
359 2 0.0922275 0.607049 0.938712
115 1 0.150832 0.63672 0.800266
102 1 0.232291 0.597694 0.938269
237 1 0.144334 0.731981 0.966239
140 1 0.384473 0.537601 0.964763
305 2 0.459282 0.566271 0.792304
198 1 0.328943 0.60012 0.811965
225 1 0.438978 0.654892 0.875807
310 2 0.276609 0.713909 0.969671
240 1 0.551195 0.681856 0.750505
199 1 0.519117 0.500172 0.905224
325 2 0.633407 0.532209 0.85105
171 1 0.684229 0.616721 0.751079
105 1 0.588503 0.641095 0.902796
345 2 0.540007 0.748596 0.868495
203 1 0.744498 0.555906 0.912137
90 1 0.986219 0.629392 0.831136
137 1 0.77394 0.700921 0.910278
14 1 0.888891 0.542229 0.917093
122 1 0.830231 0.60135 0.793223
350 2 0.903028 0.67787 0.911463
288 1 0.864313 0.746784 0.81068
54 1 0.00981216 0.75879 0.881162
297 2 0.103852 0.954761 0.795529
153 1 0.149502 0.83808 0.787106
268 1 0.091345 0.909768 0.914591
139 1 0.243538 0.8848 0.887283
135 1 0.282018 0.762654 0.798179
347 2 0.474165 0.946709 0.817423
98 1 0.407235 0.804526 0.879811
120 1 0.400939 0.953429 0.950088
138 1 0.535283 0.84289 0.769877
201 1 0.731372 0.849955 0.75116
190 1 0.527197 0.759871 0.989025
343 2 0.652191 0.906252 0.827151
247 1 0.659248 0.757222 0.829243
244 1 0.537869 0.894077 0.915737
33 1 0.677531 0.837759 0.958271
335 2 0.971119 0.872483 0.851118
211 1 0.787825 0.977326 0.962427
6 1 0.959144 0.978822 0.943669
300 2 0.775085 0.818373 0.868969
78 1 0.855251 0.930879 0.818133
107 1 0.886891 0.819554 0.943333
ITEM: TIMESTEP
70000
ITEM: NUMBER OF ATOMS
360
ITEM: BOX BOUNDS pp pp pp
0.0000000000000000e+00 6.6943295008216896e+00
0.0000000000000000e+00 6.6943295008216896e+00
0.0000000000000000e+00 6.6943295008216896e+00
ITEM: ATOMS id type xs ys zs
169 1 0.0282547 0.0752121 0.0131215
289 2 0.277785 0.215248 0.0904088
59 1 0.105639 0.0991921 0.206206
12 1 0.168893 0.12894 0.068475
323 2 0.107332 0.00626249 0.0774812
99 1 0.192623 0.285147 0.0189451
95 1 0.275389 0.142938 0.222418
16 1 0.319983 0.0448673 0.104209
270 1 0.428752 0.106464 0.229112
58 1 0.398303 0.194308 0.0881741
89 1 0.556596 0.190859 0.156688
134 1 0.643275 0.0657422 0.989375
346 2 0.680051 0.158736 0.0853732
348 2 0.681625 0.218305 0.200787
159 1 0.662529 0.0476793 0.170152
77 1 0.548178 0.178199 -0.0117567
229 1 0.978053 0.162383 0.156314
313 2 0.906692 0.0738699 0.0807798
167 1 0.796333 0.155838 0.184924
50 1 0.83789 1.00385 0.172803
221 1 0.98814 0.00943223 0.15782
189 1 0.880422 0.209354 0.0561365
45 1 0.778903 0.0815549 0.0522768
223 1 0.152534 0.236507 0.167929
228 1 0.101723 0.404864 0.0546068
308 2 0.204019 0.359623 0.123931
34 1 0.0871581 0.395585 0.205822
304 2 0.159485 0.492233 0.127093
28 1 0.279596 0.468341 0.0902816
102 1 0.307886 0.299729 0.176569
269 1 0.340831 0.32059 0.0320168
257 1 0.417931 0.417663 0.170774
281 1 0.445213 0.259811 0.232377
280 1 0.500749 0.304045 0.0830769
196 1 0.592778 0.285468 0.274485
5 1 0.592985 0.408815 0.174207
101 1 0.675329 0.289222 0.089971
254 1 0.617599 0.437747 0.0256509
125 1 0.738515 0.45428 0.111655
336 2 0.694289 0.378007 0.221428
291 2 1.0085 0.285646 0.20708
208 1 0.807334 0.339604 0.177808
110 1 0.946888 0.345343 0.097596
357 2 0.868855 0.449798 0.158902
194 1 0.910834 0.48978 0.0311255
160 1 0.786029 0.36066 -0.00613726
103 1 0.167628 0.560956 0.025967
109 1 0.125378 0.741166 0.231418
212 1 0.072701 0.637983 0.114894
3 1 0.193778 0.588234 0.191619
328 2 0.0433138 0.519303 0.051196
350 2 0.0792704 0.575602 0.242557
237 1 0.298229 0.627941 0.0956306
60 1 0.43886 0.569012 0.107715
73 1 0.345492 0.558493 0.228048
232 1 0.29052 0.748688 0.182949
133 1 0.437074 0.724625 0.124859
302 2 0.578497 0.548192 0.120831
158 1 0.686972 0.608703 0.0732661
149 1 0.578557 0.664473 0.181328
13 1 0.561518 0.718564 0.0303413
186 1 0.683236 0.570458 0.232874
57 1 0.61083 0.80669 0.149977
105 1 0.547944 0.578988 0.993333
273 1 0.786023 0.725349 0.142753
220 1 -0.007979 0.51551 0.17532
123 1 0.83241 0.570473 0.145643
331 2 0.94095 0.618865 0.106623
312 2 0.911143 0.531336 0.272904
14 1 1.01159 0.635231 0.979708
204 1 0.0991208 0.910942 0.184604
268 1 0.212998 0.929594 0.0797142
156 1 0.169698 0.757453 0.0971659
51 1 0.0287673 0.890734 0.0504513
290 2 0.212384 0.844942 0.180071
107 1 0.006614 0.839682 0.279024
360 2 0.0488857 0.791621 0.142012
319 2 0.211381 0.0309076 0.161275
200 1 0.3392 0.889829 0.155345
135 1 0.313642 0.796776 0.0371001
53 1 0.480039 0.841095 0.233042
65 1 0.491667 0.875408 0.0911365
355 2 0.673707 0.762114 0.0473169
155 1 0.513689 0.0449901 0.103379
286 1 0.635661 0.921858 0.0631592
292 2 0.575388 0.933055 0.168782
67 1 0.7299 0.885496 0.193338
122 1 0.955031 0.747188 0.0742966
320 2 0.756542 0.960291 0.08421
183 1 0.794636 0.8492 0.0340094
17 1 0.910446 0.876598 0.159035
214 1 0.896524 0.963205 0.0164654
317 2 0.189963 0.171803 0.31693
287 1 0.112158 0.107375 0.401528
127 1 0.240692 0.198103 0.447333
298 2 0.226823 0.0624361 0.425028
187 1 0.205709 0.0119678 0.289858
36 1 0.0396768 0.191072 0.298415
25 1 0.0852172 0.243392 0.466175
354 2 0.452575 0.0622191 0.352695
267 1 0.337212 0.111007 0.377181
154 1 0.483694 0.208153 0.368797
284 1 0.314255 0.261867 0.33139
249 1 0.435058 0.098452 0.486029
121 1 0.388797 0.233651 0.486525
75 1 0.665693 0.133168 0.29153
165 1 0.586463 0.066027 0.398745
38 1 0.722455 0.0151171 0.456794
92 1 0.632354 0.226651 0.423568
56 1 0.788327 0.158138 0.419431
316 2 0.99078 0.0618403 0.387791
197 1 0.778853 0.0299225 0.312897
20 1 0.921644 0.0881404 0.282602
41 1 0.943935 0.190037 0.417564
35 1 0.880363 0.0512301 0.442495
39 1 0.123121 0.441641 0.396317
132 1 0.168861 0.313184 0.31752
242 1 0.0121038 0.323903 0.360518
162 1 0.229273 0.435598 0.227088
43 1 0.247586 0.359728 0.452194
262 1 0.350885 0.405225 0.309621
314 2 0.425783 0.321746 0.389727
233 1 0.394408 0.4256 0.46545
96 1 0.522476 0.322639 0.469141
326 2 0.735501 0.298011 0.434505
72 1 0.498669 0.403314 0.315421
307 2 0.629404 0.340875 0.379548
11 1 0.632674 0.445314 0.316367
259 1 0.709565 0.414847 0.441881
66 1 0.740454 0.271992 0.311696
104 1 0.985108 0.449509 0.478874
210 1 0.934448 0.400613 0.261535
213 1 0.853936 0.334588 0.395902
192 1 0.895889 0.241934 0.273592
27 1 0.790124 0.456646 0.272135
86 1 0.155976 0.612409 0.336576
131 1 0.212875 0.613112 0.483792
241 1 0.0676789 0.582693 0.465967
345 2 0.126664 0.705366 0.491128
236 1 0.018499 0.522167 0.329039
202 1 0.434799 0.68095 0.268733
8 1 0.506335 0.525031 0.235826
251 1 0.274328 0.524127 0.368894
235 1 0.43806 0.540578 0.366606
164 1 0.29053 0.680458 0.323201
352 2 0.333271 0.543749 0.496777
4 1 0.576375 0.498604 0.465421
130 1 0.565622 0.626826 0.345185
166 1 0.701194 0.562096 0.389667
234 1 0.694462 0.716165 0.280355
248 1 0.635654 0.775748 0.43586
344 2 0.554234 0.744378 0.290517
191 1 0.55347 0.65889 0.493111
74 1 0.953391 0.678564 0.223658
148 1 0.8674 0.493987 0.394266
48 1 0.930375 0.643474 0.409417
49 1 0.818565 0.628458 0.298384
295 2 0.803505 0.60402 0.442809
7 1 0.790313 0.730785 0.41441
141 1 0.179744 0.862688 0.317283
112 1 0.0601644 0.98023 0.31281
231 1 0.228338 0.778417 0.437984
91 1 0.155247 0.954362 0.440203
63 1 0.0674349 0.730576 0.368181
293 2 0.0679445 0.866391 0.394485
2 1 0.355396 0.982201 0.284844
330 2 0.275164 0.929013 0.381513
181 1 0.320643 0.990396 0.480692
80 1 0.476136 0.77094 0.375703
81 1 0.364666 0.827935 0.487749
62 1 0.455217 0.936074 0.394317
32 1 0.348302 0.835536 0.328489
144 1 0.529638 0.00159773 0.275367
321 2 0.659348 0.998801 0.304756
97 1 0.610212 0.867161 0.300363
279 1 0.602073 0.915221 0.458737
184 1 0.833965 0.790028 0.282938
87 1 1.01059 0.959485 0.470093
84 1 0.739641 0.878782 0.385957
152 1 0.91642 0.941372 0.320621
70 1 0.943351 0.799038 0.412093
9 1 0.12271 0.19626 0.603192
297 2 0.209497 0.128251 0.686642
168 1 0.188262 0.0715096 0.548181
327 2 0.00187941 0.209307 0.722464
116 1 0.0778029 0.0915747 0.72803
161 1 0.00737036 0.0968075 0.523301
178 1 0.140578 0.229531 0.759029
322 2 0.316602 0.124295 0.531724
146 1 0.321228 0.0451429 0.631679
207 1 0.302123 0.193826 0.727681
46 1 0.46196 0.00150834 0.694559
341 2 0.496442 0.0702382 0.603326
218 1 0.26663 0.24118 0.588838
128 1 0.422877 0.158874 0.631123
318 2 0.321446 0.0350089 0.758659
340 2 0.684312 0.130181 0.512359
177 1 0.623706 0.0350521 0.58333
150 1 0.550858 0.177196 0.537796
255 1 0.695361 0.182944 0.619994
276 1 0.571362 0.139543 0.692679
274 1 0.715427 0.0400385 0.725456
94 1 0.79104 0.074319 0.586556
69 1 0.922888 0.0953724 0.665679
334 2 0.884243 0.141048 0.542983
47 1 0.822943 0.169142 0.740107
124 1 0.963687 0.226703 0.595572
114 1 0.806183 0.262996 0.540248
342 2 0.938974 0.997545 0.581946
18 1 0.122362 0.35972 0.540422
301 2 0.129726 0.482916 0.514587
285 1 0.041783 0.329848 0.671028
311 2 0.174005 0.303974 0.66667
264 1 0.16006 0.42906 0.684395
294 2 0.958862 0.294952 0.482282
263 1 0.271504 0.456847 0.570636
145 1 0.394781 0.32871 0.594631
182 1 0.432341 0.425553 0.742318
282 1 0.293675 0.358595 0.711569
338 2 0.390023 0.450447 0.609805
205 1 0.6547 0.30786 0.554066
24 1 0.535307 0.412607 0.601181
325 2 0.512916 0.274408 0.62989
271 1 0.695391 0.447334 0.62564
15 1 0.613555 0.319276 0.703365
188 1 0.577718 0.488807 0.728263
209 1 0.0302446 0.471994 0.622892
303 2 0.810817 0.384753 0.510485
195 1 0.765475 0.325823 0.682788
172 1 0.918737 0.37623 0.596913
10 1 0.843501 0.467353 0.696027
275 1 0.905158 0.294668 0.74251
126 1 0.00760843 0.714386 0.528228
180 1 0.167876 0.578825 0.629132
118 1 0.183557 0.732516 0.603711
351 2 0.0418139 0.611021 0.600322
153 1 0.068192 0.687377 0.702446
83 1 0.455663 0.553412 0.555929
243 1 0.321385 0.620338 0.607951
198 1 0.433258 0.611056 0.724247
266 1 0.372021 0.663564 0.457772
309 2 0.445018 0.660737 0.611367
100 1 0.322398 0.762886 0.684834
246 1 0.599261 0.577353 0.599193
332 2 0.685161 0.534948 0.520427
225 1 0.701733 0.735142 0.785743
175 1 0.706371 0.657885 0.535458
138 1 0.549638 0.708031 0.709194
193 1 0.620526 0.768066 0.589978
247 1 0.678326 0.590512 0.730815
305 2 0.564164 0.581965 0.797896
42 1 0.799113 0.511171 0.534165
261 1 0.929137 0.580143 0.556946
44 1 0.932994 0.742492 0.683196
226 1 0.862751 0.745436 0.546576
171 1 0.805594 0.633635 0.65062
1 1 0.941744 0.588241 0.723843
306 2 0.837395 0.72054 0.769237
230 1 0.0993835 0.836111 0.511654
82 1 0.241344 0.90663 0.57728
79 1 0.189209 0.995744 0.690804
136 1 0.0881091 0.84384 0.678
176 1 0.0734093 0.99678 0.597035
211 1 0.980764 0.963287 0.725969
299 2 0.287506 0.731966 0.542818
260 1 0.33863 0.91448 0.710189
113 1 0.468987 0.774133 0.584525
157 1 0.446642 0.928021 0.556126
37 1 0.462891 0.8427 0.757674
296 2 0.523996 1.00709 0.504365
339 2 0.503232 0.846465 0.485107
337 2 0.74465 0.79546 0.52283
142 1 0.569367 0.887815 0.648385
23 1 0.707365 0.903667 0.584241
343 2 0.653959 0.822238 0.710639
324 2 0.589401 1.01205 0.724013
239 1 0.840356 0.942349 0.660811
201 1 0.772579 0.787085 0.657512
238 1 0.964435 0.862357 0.58866
117 1 0.857488 0.911833 0.49142
163 1 0.124673 0.180158 0.934661
250 1 0.222805 0.102168 0.821261
356 2 0.0989406 0.0772927 0.866623
245 1 0.164338 0.00692519 0.953039
315 2 0.996575 0.186206 0.950023
329 2 0.283927 0.0190675 0.977239
173 1 0.437122 0.0809674 0.954599
21 1 0.293082 0.139976 0.97439
216 1 0.417586 0.122665 0.791256
61 1 0.244722 0.271309 0.860459
147 1 0.407295 0.233152 0.904235
333 2 0.690289 0.162471 0.761874
93 1 0.553155 0.220353 0.832764
244 1 0.586984 0.0709446 0.83594
353 2 0.651295 0.17661 0.904842
277 1 0.74505 0.208672 0.982178
31 1 0.744334 0.0928522 0.87302
52 1 0.709445 0.277409 0.842973
170 1 0.884004 0.0884962 0.952886
88 1 0.962418 0.1239 0.814799
174 1 0.873915 0.243767 0.884537
219 1 0.846055 0.0239462 0.795395
143 1 0.0497394 0.238296 0.0594344
349 2 0.112562 0.315866 0.936941
111 1 0.0280697 0.267531 0.845025
227 1 0.0725141 0.506387 0.920596
258 1 0.128022 0.393637 0.826751
222 1 0.231049 0.42599 0.951709
64 1 0.303618 0.520339 0.730127
85 1 0.440589 0.271998 0.74352
199 1 0.367445 0.382891 0.883869
206 1 0.449092 0.426708 -0.00318248
358 2 0.483055 0.317166 0.945535
203 1 0.617204 0.306164 0.955566
40 1 0.546835 0.37381 0.829684
265 1 0.711517 0.425616 0.784216
90 1 0.971721 0.441499 0.765867
278 1 0.979226 0.376529 0.935334
26 1 0.843981 0.401845 0.865764
310 2 0.697539 0.396294 0.901951
30 1 0.0927386 0.549391 0.759835
215 1 0.0945175 0.673082 0.855231
115 1 0.20872 0.548304 0.857852
68 1 0.241357 0.680775 0.956942
256 1 0.217496 0.662142 0.755776
54 1 0.0703125 0.766536 0.975999
140 1 0.341042 0.540346 0.967872
283 1 0.468116 0.516206 0.866821
359 2 0.409911 0.725501 0.771833
55 1 0.338748 0.634404 0.837543
190 1 0.406719 0.686278 0.969261
108 1 0.539678 0.680618 0.87062
240 1 0.641234 0.521716 0.875078
137 1 0.676017 0.656396 0.933338
253 1 0.836881 0.652229 0.974453
185 1 0.925315 0.542533 0.883857
252 1 0.760758 0.519396 0.951699
224 1 0.945813 0.701374 0.852627
151 1 0.788709 0.611423 0.81704
335 2 0.0922143 0.892359 0.935966
139 1 0.0370023 0.82936 0.822639
6 1 0.122403 0.953673 0.821732
29 1 0.208657 0.838364 0.941422
22 1 0.195615 0.817967 0.782091
272 1 0.279645 0.950576 0.851708
120 1 0.380252 0.931745 1.00236
217 1 0.348758 0.789894 0.85723
76 1 0.429194 0.976161 0.844908
19 1 0.55039 0.94258 0.943342
98 1 0.480608 0.814043 0.940115
71 1 0.600654 0.90649 0.797061
347 2 0.55517 0.789814 0.826466
129 1 0.645386 0.805035 0.917608
119 1 0.718838 0.943137 0.922147
106 1 0.742281 0.890373 0.781237
288 1 0.800203 0.773426 0.888567
33 1 0.986853 0.977721 0.899412
179 1 0.934039 0.826035 0.94172
300 2 0.842656 0.921297 0.896977
78 1 0.885055 0.85187 0.791336
ITEM: TIMESTEP
140000
ITEM: NUMBER OF ATOMS
360
ITEM: BOX BOUNDS pp pp pp
0.0000000000000000e+00 6.6943295008216896e+00
0.0000000000000000e+00 6.6943295008216896e+00
0.0000000000000000e+00 6.6943295008216896e+00
ITEM: ATOMS id type xs ys zs
12 1 0.115329 0.0157555 0.147016
59 1 0.0653414 0.170166 0.18067
163 1 0.205931 0.206774 0.128633
349 2 0.112976 0.132092 0.0630773
16 1 0.247921 0.0669911 0.0768404
287 1 0.211598 0.0929408 0.236118
89 1 0.342943 0.150327 0.183059
155 1 0.482382 0.204608 0.130711
187 1 0.471639 0.0584082 0.146158
322 2 0.271059 0.172749 1.00062
77 1 0.63961 0.229033 0.0634302
38 1 0.586456 0.0864998 0.235747
65 1 0.637767 0.0633956 0.0868138
321 2 0.713471 0.0646351 0.186363
75 1 0.658659 0.224238 0.204706
45 1 0.780223 0.147458 0.0938003
323 2 0.99874 0.065567 0.159225
189 1 0.968499 0.0294709 0.0523911
41 1 0.926555 0.168536 0.0995911
20 1 0.854439 0.0474494 0.179387
304 2 0.878313 0.154036 0.976257
26 1 0.831181 0.209328 0.221683
169 1 0.816225 0.0208368 0.00638117
237 1 0.206598 0.267545 0.256974
278 1 0.081794 0.261492 0.061991
99 1 0.151768 0.376037 0.151687
301 2 0.225141 0.414439 0.0464141
212 1 0.0142183 0.483354 0.107267
58 1 0.343561 0.265794 0.0816337
102 1 0.363075 0.299906 0.234136
280 1 0.300198 0.404412 0.140236
186 1 0.459614 0.37173 0.121974
336 2 0.376144 0.481847 0.0381539
257 1 0.252407 0.525909 0.0135803
105 1 0.498606 0.469697 0.996204
307 2 0.576554 0.297297 0.145407
5 1 0.600355 0.371379 0.0367298
165 1 0.66718 0.379598 0.171219
206 1 0.769065 0.295089 0.0972463
253 1 0.719003 0.504086 0.109557
121 1 0.513883 0.27872 0.258662
289 2 0.98983 0.393494 0.0203604
223 1 0.972155 0.326433 0.163163
203 1 0.90473 0.294792 0.0222849
66 1 0.822729 0.385152 0.211422
110 1 0.858471 0.43196 0.0724391
302 2 0.943747 0.550217 0.202735
220 1 0.11295 0.594146 0.0330031
204 1 0.0467294 0.616 0.200541
162 1 0.188449 0.54046 0.158167
298 2 0.145851 0.671861 0.125228
51 1 0.113982 0.770959 0.0452215
103 1 0.991715 0.686695 0.0743232
3 1 0.272501 0.658862 0.120869
135 1 0.411847 0.562033 0.130405
133 1 0.47505 0.717011 0.170448
200 1 0.404121 0.726126 0.0372145
360 2 0.307178 0.730229 0.23907
149 1 0.525408 0.636797 0.0450678
196 1 0.55705 0.514944 0.141087
348 2 0.641406 0.608965 0.10658
158 1 0.621786 0.708507 0.197239
13 1 0.657337 0.732097 0.0512702
74 1 0.633705 0.543783 0.979229
228 1 0.7557 0.660102 0.182071
306 2 0.752564 0.60902 0.0520241
194 1 0.88046 0.581907 0.0813135
123 1 0.904782 0.676876 0.219844
252 1 0.819301 0.537919 0.248554
315 2 0.842869 0.788366 0.259487
268 1 0.211065 0.916964 0.0387816
156 1 0.0591453 0.772835 0.184262
319 2 0.132926 0.888545 0.130857
109 1 0.203693 0.802435 0.187408
87 1 0.248961 0.949441 0.189346
229 1 0.0369817 0.900128 0.0509847
308 2 0.36436 -0.0026407 0.19049
120 1 0.3557 0.947019 0.0766721
32 1 0.341166 0.815341 0.151682
144 1 0.483229 0.886228 0.16133
345 2 0.396178 0.885244 0.254724
292 2 0.243143 0.774033 0.0642825
314 2 0.519135 0.791947 0.0741193
330 2 0.587139 0.962076 0.157335
318 2 0.66015 0.823423 0.185278
288 1 0.599549 0.885284 0.0410452
170 1 0.733102 0.938775 0.103133
183 1 0.770698 0.80117 0.151791
221 1 0.982507 0.940908 0.192326
67 1 0.918561 0.812802 0.14003
313 2 0.897277 0.929057 0.0930673
36 1 0.0330759 0.0608814 0.282606
218 1 0.179904 0.106241 0.381527
317 2 0.118915 0.17903 0.294013
9 1 0.017327 0.223947 0.385607
311 2 0.223778 0.119111 0.495395
2 1 0.4509 0.141609 0.280604
267 1 0.356378 0.101391 0.511007
43 1 0.316658 0.172406 0.356596
263 1 0.452571 0.203283 0.429617
62 1 0.357745 0.00170971 0.322351
24 1 0.27818 0.236571 0.51155
279 1 0.461918 0.051142 0.426903
270 1 0.601514 0.192204 0.357866
255 1 0.645431 0.0482797 0.428603
296 2 0.561857 0.145183 0.471577
346 2 0.968502 0.213799 0.237643
84 1 0.739794 0.122978 0.294132
293 2 0.899607 0.207287 0.449608
70 1 0.896937 0.136139 0.338205
197 1 0.778915 0.152327 0.437744
94 1 0.797613 0.00821554 0.385085
114 1 0.00385206 0.0774201 0.44505
242 1 0.0696894 0.324255 0.280771
312 2 0.0929274 0.458591 0.231219
132 1 0.248639 0.411116 0.289538
145 1 0.16841 0.25827 0.405287
18 1 0.0850945 0.394719 0.407956
291 2 0.0447775 0.313393 0.495945
262 1 0.230566 0.384361 0.441198
281 1 0.419782 0.450227 0.256874
39 1 0.396095 0.338251 0.378983
251 1 0.377334 0.475706 0.463774
310 2 0.729124 0.446723 0.281118
72 1 0.569369 0.428623 0.273089
96 1 0.53734 0.332868 0.419859
357 2 0.619305 0.30481 0.312462
56 1 0.680367 0.404649 0.402869
192 1 0.753203 0.267028 0.330243
92 1 0.679079 0.261401 0.48678
246 1 0.52133 0.467356 0.501072
167 1 0.911113 0.303437 0.306283
236 1 0.957854 0.449343 0.268659
210 1 0.832435 0.43663 0.364174
213 1 0.906642 0.34075 0.45388
340 2 0.789563 0.35541 0.458331
334 2 0.967922 0.451981 0.415732
104 1 0.0915863 0.537409 0.339979
48 1 0.0460553 0.698051 0.36186
131 1 0.175851 0.65919 0.268648
351 2 0.167787 0.617912 0.398066
184 1 0.0182218 0.589509 0.480312
8 1 0.500149 0.574115 0.262401
352 2 0.476631 0.467493 0.368941
34 1 0.259752 0.53035 0.375248
235 1 0.423331 0.606173 0.390246
107 1 0.324525 0.596167 0.253834
243 1 0.282435 0.694468 0.36486
11 1 0.587992 0.533369 0.387148
355 2 0.70436 0.667161 0.299556
130 1 0.66509 0.549758 0.254433
166 1 0.694589 0.726671 0.434438
57 1 0.567253 0.692488 0.345126
125 1 0.743998 0.568489 0.390973
4 1 0.540849 0.660406 0.490737
234 1 0.818145 0.690626 0.345022
148 1 0.941857 0.580056 0.33351
175 1 0.903447 0.701602 0.464415
63 1 0.157845 0.808356 0.355976
337 2 0.221473 0.963795 0.313578
117 1 0.121349 0.960536 0.402795
35 1 0.112985 0.915182 0.259087
134 1 0.494734 0.978266 0.282697
91 1 0.279383 0.963245 0.440996
141 1 0.290952 0.850126 0.309435
266 1 0.388829 0.746475 0.457868
164 1 0.422049 0.748054 0.307927
81 1 0.424062 0.881602 0.38371
299 2 0.257259 0.822317 0.426682
152 1 0.68244 0.957968 0.270742
129 1 0.714775 0.794101 0.299403
80 1 0.568063 0.833178 0.288454
53 1 0.680635 0.891827 0.419852
159 1 0.543894 0.800127 0.456506
290 2 0.54161 0.953267 0.421195