ITEM: TIMESTEP
0
ITEM: NUMBER OF ATOMS
360
ITEM: BOX BOUNDS pp pp pp
0.0000000000000000e+00 6.6943295008216896e+00
0.0000000000000000e+00 6.6943295008216896e+00
0.0000000000000000e+00 6.6943295008216896e+00
ITEM: ATOMS id type xs ys zs
178 1 0.0594414 0.161637 0.122672
76 1 0.216395 0.180715 0.13252
83 1 0.163696 0.121866 0.00390734
64 1 0.16021 0.0348788 0.149791
212 1 0.0339407 0.0372885 0.226934
337 2 0.303837 0.118582 0.215386
133 1 0.319802 0.0696697 0.0782279
268 1 0.390046 0.0270951 0.215874
5 1 0.381127 0.208755 0.129813
284 1 0.474364 0.0430472 0.0563781
321 2 0.45683 0.110904 0.161401
44 1 0.615483 0.123383 0.104682
320 2 0.517352 0.184821 0.0407393
214 1 0.545058 0.0389148 0.208104
259 1 0.528796 0.231922 0.1828
162 1 0.694849 0.0246278 0.243045
49 1 0.787023 0.208673 0.0295595
338 2 0.958233 0.0128469 0.12722
213 1 0.803716 0.186087 0.208221
270 1 0.915017 0.124011 0.099771
93 1 0.770852 0.0706811 0.0908224
20 1 0.853291 0.0185058 0.213936
327 2 0.137358 0.327871 0.110666
124 1 0.0943425 0.261817 0.225316
146 1 0.0128214 0.378785 0.175287
3 1 0.201513 0.407658 0.00771346
255 1 0.0411723 0.415087 0.0353682
86 1 0.150867 0.460154 0.151306
208 1 0.287407 0.349931 0.123963
84 1 0.419617 0.463857 0.137379
180 1 0.459617 0.313128 0.0704797
151 1 0.404706 0.315133 0.232934
160 1 0.307159 0.448459 0.233934
87 1 0.691144 0.285768 0.163326
210 1 0.664704 0.419529 0.053736
147 1 0.566838 0.401341 0.174035
231 1 0.627063 0.254434 0.00916391
324 2 0.737489 0.333201 0.0116927
305 2 0.558709 0.376787 0.0214413
269 1 0.965744 0.279356 0.0653596
265 1 0.831697 0.355591 0.126568
166 1 0.759722 0.482534 0.155229
13 1 0.890979 0.448813 0.230454
211 1 0.893258 0.485176 0.0718497
158 1 0.938337 0.255056 0.209661
344 2 0.820833 0.32367 0.246926
222 1 0.104035 0.645143 0.0994171
200 1 0.231664 0.59577 0.225922
356 2 0.181867 0.742497 0.145932
322 2 0.151787 0.528346 0.0412534
215 1 0.00578141 0.537204 0.141805
60 1 0.268945 0.526178 0.0892985
248 1 0.253139 0.669956 0.0692575
95 1 0.413377 0.611123 0.121539
183 1 0.459073 0.736046 0.220302
206 1 0.540268 0.510648 0.0524761
205 1 0.512848 0.542356 0.231519
194 1 0.554087 0.656439 0.123806
319 2 0.648677 0.531254 0.123713
8 1 0.715938 0.645506 0.155641
304 2 0.73198 0.748688 0.0486864
202 1 0.678592 0.649131 0.00749636
345 2 0.946283 0.611152 0.0658479
282 1 0.861706 0.58721 0.204156
42 1 0.82855 0.656486 0.064726
253 1 0.966104 0.696072 0.149136
241 1 0.0766968 0.803021 0.177964
273 1 0.173729 0.809984 0.0461468
26 1 0.0638843 0.955625 0.0646885
165 1 0.207286 0.878551 0.180294
117 1 0.000519688 0.813335 0.037838
203 1 0.225556 0.966724 0.0261986
74 1 0.30512 0.762592 0.196866
298 2 0.297716 0.806249 0.0836804
25 1 0.409879 0.767622 0.070196
294 2 0.28175 0.964346 0.145463
102 1 0.378316 0.917652 0.0689217
144 1 0.375683 0.877593 0.246428
56 1 0.523755 0.891262 0.108383
173 1 0.646688 0.96701 0.078198
164 1 0.639721 0.79102 0.160378
317 2 0.629659 0.920561 0.208275
229 1 0.59251 0.774036 0.0135062
252 1 0.83323 0.759781 0.213731
353 2 0.766228 0.947038 0.066799
129 1 0.95254 0.901565 0.177082
143 1 0.762699 0.889813 0.175513
169 1 0.89658 0.984297 0.0242865
90 1 0.839219 0.819498 0.0543806
167 1 0.01954 0.06652 0.463447
224 1 0.158561 0.138367 0.268055
24 1 0.0446159 0.186028 0.348167
15 1 0.161715 0.144519 0.473317
110 1 0.150682 0.00835916 0.396452
331 2 0.0353974 0.0165323 0.355435
280 1 0.405484 0.17815 0.303463
242 1 0.279105 0.115362 0.371454
53 1 0.482785 0.0720151 0.356048
308 2 0.31471 0.236904 0.426526
2 1 0.430675 0.197813 0.457334
326 2 0.611193 0.0656279 0.322825
184 1 0.65602 0.195663 0.283997
18 1 0.731019 0.116841 0.418948
309 2 0.529185 0.168524 0.29783
80 1 0.587258 0.187994 0.423566
17 1 0.910515 0.1234 0.304054
193 1 0.913649 0.199163 0.434894
41 1 0.879134 0.0461646 0.42957
223 1 0.776986 0.249263 0.36043
315 2 0.798926 0.069994 0.330219
62 1 0.176082 0.385432 0.272854
207 1 0.189179 0.257608 0.364852
81 1 0.0392399 0.349464 0.333997
295 2 0.169305 0.378676 0.393434
148 1 0.0885214 0.461335 0.433917
111 1 0.0653168 0.286732 0.467035
228 1 0.0597945 0.498787 0.284389
72 1 0.272517 0.252907 0.254441
293 2 0.255288 0.469374 0.484639
154 1 0.312682 0.371071 0.367986
145 1 0.422389 0.443929 0.460927
312 2 0.428987 0.3074 0.388875
119 1 0.45559 0.433108 0.306672
334 2 0.656076 0.311218 0.395011
14 1 0.551711 0.319677 0.31307
233 1 0.693542 0.379235 0.293897
43 1 0.742614 0.397712 0.439224
271 1 0.604766 0.451689 0.383328
114 1 0.549045 0.338623 0.467686
68 1 0.886836 0.364554 0.359794
291 2 0.996946 0.387613 0.478855
348 2 0.845122 0.341859 0.482572
39 1 0.883989 0.45763 0.488116
288 1 0.0329927 0.652617 0.273536
29 1 0.152541 0.624472 0.38185
32 1 0.176554 0.735329 0.27444
157 1 0.22899 0.50202 0.352569
238 1 0.229655 0.736663 0.467386
266 1 0.365823 0.600344 0.277173
306 2 0.290019 0.677029 0.332203
330 2 0.353454 0.516037 0.360664
4 1 0.339138 0.614931 0.435143
92 1 0.477652 0.580881 0.388406
51 1 0.397573 0.744452 0.374664
100 1 0.661285 0.537333 0.262392
159 1 0.603364 0.686096 0.284339
123 1 0.646504 0.610221 0.416776
247 1 0.702727 0.737205 0.478465
257 1 0.527205 0.693846 0.488779
186 1 0.791499 0.512639 0.335049
163 1 0.768491 0.654083 0.310676
318 2 0.892681 0.689877 0.305641
141 1 0.932599 0.542927 0.369644
190 1 0.814104 0.625847 0.449622
73 1 0.968065 0.685898 0.415014
339 2 0.148257 0.891642 0.43089
88 1 0.08728 0.788833 0.405782
209 1 0.0844272 0.907425 0.288843
19 1 0.0214938 0.916776 0.451701
89 1 0.25254 0.995521 0.27571
175 1 0.251883 0.856032 0.342367
191 1 0.344367 0.970651 0.388789
82 1 0.458481 0.891833 0.440415
310 2 0.453884 0.952774 0.323468
45 1 0.701991 0.816616 0.295722
96 1 0.609683 0.960695 0.386206
108 1 0.586902 0.800066 0.403003
176 1 0.535806 0.864801 0.273603
303 2 0.72387 0.869988 0.438061
313 2 0.834404 0.871092 0.285035
77 1 0.766213 0.954082 0.358564
34 1 0.972429 0.800659 0.303737
192 1 0.837953 0.786395 0.377925
134 1 0.932341 0.949221 0.324964
289 2 0.940825 0.825888 0.424964
199 1 0.853964 0.904748 0.47758
316 2 0.194017 0.214758 0.571451
52 1 0.200707 0.0919445 0.627034
323 2 0.0508773 0.0696846 0.630175
65 1 0.0335724 0.193921 0.567976
239 1 0.082393 0.163589 0.708761
218 1 0.220811 0.219595 0.710798
267 1 0.265163 0.0322122 0.507973
63 1 0.414421 0.0671697 0.520407
297 2 0.335527 0.0339288 0.622509
150 1 0.323881 0.197181 0.576777
177 1 0.428681 0.109729 0.673959
314 2 0.559389 0.0947778 0.632894
66 1 0.68493 0.102931 0.58705
263 1 0.685505 0.226613 0.665501
6 1 0.54343 0.189009 0.721907
59 1 0.554809 0.0330116 0.522513
182 1 0.536604 0.206519 0.57622
245 1 0.67905 0.0514995 0.720979
23 1 0.820083 0.198863 0.554415
351 2 0.943921 0.201506 0.670238
349 2 0.798252 0.0750577 0.534032
278 1 0.960459 0.0737236 0.736675
262 1 0.918318 0.100387 0.572092
21 1 0.814819 0.123069 0.685591
172 1 0.227232 0.341442 0.511138
256 1 0.182939 0.459261 0.584171
219 1 0.125086 0.303219 0.622833
258 1 0.244495 0.374725 0.715906
328 2 0.132466 0.398819 0.707827
235 1 0.035873 0.444608 0.592985
142 1 0.429789 0.292296 0.655649
296 2 0.297429 0.321386 0.6177
161 1 0.377225 0.322841 0.506668
11 1 0.482606 0.420996 0.593809
61 1 0.328087 0.445632 0.595599
359 2 0.479826 0.436365 0.729996
352 2 0.624191 0.420762 0.518256
341 2 0.585077 0.330603 0.623404
272 1 0.687602 0.269545 0.514162
139 1 0.622826 0.453015 0.644796
46 1 0.74854 0.380179 0.589687
27 1 0.716929 0.354861 0.740506
171 1 0.987037 0.314916 0.720506
179 1 0.841118 0.279077 0.67913
35 1 0.938426 0.301403 0.556642
37 1 0.880151 0.440729 0.650943
75 1 0.214587 0.593967 0.516138
187 1 0.0796062 0.696618 0.534349
115 1 0.101055 0.574201 0.650561
283 1 0.159324 0.723183 0.657615
137 1 0.00607907 0.568056 0.518675
236 1 0.251979 0.595661 0.671353
343 2 0.27933 0.675594 0.581237
261 1 0.421926 0.569787 0.597036
196 1 0.380203 0.675079 0.685065
28 1 0.376385 0.504157 0.723257
38 1 0.387517 0.731892 0.54275
335 2 0.261 0.706919 0.731194
10 1 0.733382 0.520612 0.522721
112 1 0.508854 0.717513 0.637255
113 1 0.55415 0.527317 0.51386
128 1 0.747097 0.523092 0.683118
188 1 0.528411 0.554395 0.696404
275 1 0.650773 0.630591 0.586147
240 1 0.638018 0.677821 0.733575
300 2 0.923611 0.67753 0.526833
195 1 0.793357 0.702551 0.654132
332 2 0.964846 0.540284 0.642916
125 1 0.86111 0.578383 0.591392
185 1 0.977503 0.667096 0.651659
127 1 0.089834 0.999912 0.730501
50 1 0.115892 0.989904 0.548632
132 1 0.150278 0.84319 0.551824
360 2 0.0965154 0.888 0.662924
168 1 0.224799 0.943055 0.660042
230 1 0.0309194 0.801168 0.716503
181 1 0.28506 0.793875 0.639267
70 1 0.288931 0.878683 0.503343
307 2 0.490542 0.840548 0.616683
79 1 0.384965 0.912958 0.607051
138 1 0.418911 0.825189 0.720341
279 1 0.711224 0.980165 0.501711
197 1 0.591652 0.885679 0.549601
299 2 0.633387 0.757784 0.58704
276 1 0.523242 0.972701 0.661448
347 2 0.670131 0.976188 0.616087
69 1 0.728953 0.84338 0.58111
198 1 0.597568 0.847792 0.708992
342 2 0.747536 0.892478 0.708719
94 1 0.810702 0.973793 0.628845
355 2 0.846745 0.801415 0.569994
106 1 0.967011 0.819917 0.558983
48 1 0.976276 0.962959 0.624901
204 1 0.863927 0.82928 0.693052
136 1 0.0179998 0.0733051 0.982465
358 2 0.151561 0.0860151 0.798691
98 1 0.057879 0.173068 0.855163
329 2 0.0191828 0.0427052 0.841987
189 1 0.128558 0.0125624 0.90092
121 1 0.212666 0.192603 0.868049
250 1 0.285189 0.0803475 0.763856
221 1 0.400608 0.169122 0.98506
71 1 0.370723 0.205839 0.777185
12 1 0.300414 0.0860311 0.922664
301 2 0.421666 0.100962 0.864917
99 1 0.687216 0.116391 0.971491
85 1 0.540248 0.0446832 0.799078
152 1 0.541654 0.125215 0.930098
107 1 0.640222 0.234242 0.839227
290 2 0.652857 0.0619523 0.855979
225 1 0.759318 0.131689 0.84092
357 2 0.810637 0.0989451 0.972592
103 1 0.899872 0.207019 0.793456
36 1 0.898653 0.0707392 0.89239
325 2 0.752434 0.233749 0.774111
277 1 0.908268 0.213963 0.942586
156 1 0.11273 0.265322 0.979162
1 1 0.122771 0.296365 0.794468
286 1 0.1213 0.427262 0.882441
109 1 0.0295345 0.469622 0.75048
120 1 0.189313 0.499449 0.773724
7 1 0.268046 0.2647 0.993429
91 1 0.373628 0.370608 0.965158
216 1 0.393595 0.361992 0.792198
350 2 0.372642 0.261566 0.893206
264 1 0.262686 0.340595 0.861362
16 1 0.319609 0.480931 0.872072
67 1 0.490536 0.444111 0.882014
40 1 0.554586 0.344605 0.760754
251 1 0.503979 0.274662 0.881572
140 1 0.627454 0.373572 0.916109
254 1 0.846599 0.362893 0.977833
246 1 0.750714 0.451133 0.866844
227 1 0.998525 0.338168 0.89105
281 1 0.766039 0.281238 0.889063
201 1 0.939556 0.481953 0.891287
101 1 0.870713 0.349857 0.824929
336 2 0.813912 0.451725 0.760476
243 1 0.0546815 0.558799 0.972096
131 1 0.213494 0.585774 0.928756
333 2 0.233071 0.72602 0.957269
220 1 0.100013 0.717362 0.95322
354 2 0.110204 0.569205 0.854074
9 1 0.0223275 0.628043 0.779716
78 1 0.163048 0.687667 0.819666
155 1 0.390658 0.54618 0.978819
237 1 0.305519 0.621067 0.811592
130 1 0.460776 0.574443 0.826361
30 1 0.462669 0.716524 0.812951
135 1 0.370198 0.698279 0.93095
47 1 0.627928 0.507796 0.792745
234 1 0.531603 0.656416 0.966602
311 2 0.570701 0.636116 0.857165
58 1 0.63034 0.537192 0.933998
33 1 0.730254 0.629943 0.838564
104 1 0.766201 0.527349 0.988902
31 1 0.88796 0.565085 0.755521
292 2 0.836804 0.550115 0.87039
217 1 0.788226 0.744094 0.924072
153 1 0.915544 0.639703 0.926783
118 1 0.869784 0.712554 0.790509
260 1 0.181244 0.841055 0.752606
174 1 0.00414078 0.924275 0.924954
346 2 0.0888825 0.910607 0.828442
54 1 0.151957 0.833812 0.89894
249 1 0.409867 0.972385 0.922245
126 1 0.263332 0.949948 0.84512
232 1 0.396334 0.978929 0.755485
97 1 0.30414 0.847119 0.959162
57 1 0.305242 0.779473 0.817616
340 2 0.377645 0.889944 0.834763
149 1 0.466601 0.823907 0.949249
105 1 0.598806 0.764054 0.857059
244 1 0.501734 0.889157 0.820158
116 1 0.712125 0.86476 0.99397
22 1 0.562891 0.943681 0.945314
287 1 0.675379 0.922967 0.832067
122 1 0.746155 0.796498 0.789797
55 1 0.991421 0.783364 0.870255
302 2 0.908095 0.756016 0.969999
170 1 0.815772 0.988472 0.78647
226 1 0.96314 0.920592 0.778421
285 1 0.857259 0.868817 0.881442
274 1 0.763045 0.980011 0.942515
ITEM: TIMESTEP
60000
ITEM: NUMBER OF ATOMS
360
ITEM: BOX BOUNDS pp pp pp
0.0000000000000000e+00 6.6943295008216896e+00
0.0000000000000000e+00 6.6943295008216896e+00
0.0000000000000000e+00 6.6943295008216896e+00
ITEM: ATOMS id type xs ys zs
12 1 0.202175 0.180171 0.148788
318 2 0.234659 0.0507306 0.129195
212 1 0.0872321 0.0852301 0.125185
208 1 0.251079 0.217398 0.956656
273 1 0.182521 0.0871787 1.00103
26 1 0.050775 0.215953 0.227023
24 1 0.113072 0.971803 0.240148
334 2 0.0975004 0.0985393 0.252233
76 1 0.331865 0.135024 0.0669429
205 1 0.369919 0.199602 0.206893
2 1 0.377351 0.0349348 0.183154
89 1 0.243481 0.0656571 0.260841
147 1 0.483764 0.153305 0.0862352
206 1 0.640484 0.227556 0.07809
338 2 0.644658 0.106002 0.154905
270 1 0.666157 0.213401 0.214451
93 1 0.632448 0.0673162 0.0318382
77 1 0.781271 0.0546776 0.149717
136 1 0.978779 0.233601 0.0978802
49 1 0.805216 0.190059 0.103519
134 1 0.935649 0.0496642 0.111525
18 1 0.897567 0.163537 0.208494
313 2 0.775674 0.155361 0.250876
3 1 0.166026 0.337186 0.0764739
13 1 0.113826 0.445324 0.182066
179 1 0.107892 0.497955 0.0392167
317 2 0.0440697 0.550443 0.14658
358 2 0.0538383 0.330665 0.15852
62 1 0.197878 0.311917 0.227764
95 1 0.303724 0.296135 0.106478
154 1 0.271837 0.460922 0.181385
104 1 0.499824 0.448954 0.194011
251 1 0.390614 0.448926 0.0656922
72 1 0.376332 0.356957 0.225003
84 1 0.478135 0.304749 0.132085
325 2 0.732211 0.292163 0.14055
231 1 0.72995 0.363597 0.035033
99 1 0.626445 0.361901 0.166463
155 1 0.543328 0.372755 0.00329448
105 1 0.657495 0.502093 0.109639
284 1 0.788793 0.391438 0.184412
255 1 0.876838 0.331744 0.0557832
210 1 0.928223 0.330568 0.220163
215 1 0.95944 0.449577 0.136044
103 1 0.0267179 0.374527 0.0244706
282 1 0.828647 0.539044 0.0912392
146 1 0.215335 0.61539 0.162879
86 1 0.0880315 0.652388 0.084451
200 1 0.213577 0.677709 1.00235
236 1 0.0752321 0.65821 0.24129
131 1 0.263409 0.52757 0.0500907
292 2 0.354721 0.693876 0.146063
74 1 0.415405 0.569103 0.169075
4 1 0.47362 0.734612 0.143022
102 1 0.372768 0.606943 0.000142675
299 2 0.495099 0.559756 0.276131
281 1 0.517316 0.536528 0.0483431
304 2 0.591739 0.729373 0.112742
8 1 0.558273 0.614751 0.182444
163 1 0.708568 0.651791 0.14129
183 1 0.664247 0.77654 0.210323
42 1 0.718281 0.789467 0.0607886
166 1 0.737935 0.526336 0.244568
345 2 0.86411 0.504542 0.209869
220 1 0.948525 0.505955 0.0047263
356 2 0.832234 0.684544 0.0905427
73 1 0.934064 0.629311 0.174362
253 1 0.819461 0.794627 0.177577
141 1 0.23677 0.768327 0.130739
288 1 0.0981197 0.80616 0.0542027
51 1 0.152578 0.95821 0.084027
32 1 0.00744822 0.922572 0.140344
241 1 0.109104 0.805142 0.222909
6 1 0.414768 0.884099 0.12446
189 1 0.322786 0.971412 0.0354104
22 1 0.360048 0.802098 0.23412
221 1 0.25808 0.923801 0.211359
57 1 0.370743 0.772307 0.0326599
143 1 0.565202 0.991912 0.150677
149 1 0.58052 0.856003 0.0797775
173 1 0.471019 0.0105108 0.0239925
252 1 0.724298 0.916181 0.155206
268 1 0.521156 0.852092 0.255767
129 1 0.677093 0.925588 0.976659
88 1 0.966164 0.776253 0.142728
169 1 0.846286 0.908825 0.0722038
199 1 0.885057 0.949923 0.217906
55 1 0.972437 0.868344 0.988205
124 1 0.119687 0.0570219 0.377162
64 1 0.140361 0.203997 0.350344
68 1 0.0891805 0.142421 0.503783
50 1 0.267087 0.11634 0.424075
110 1 0.403538 0.082357 0.328818
65 1 0.294915 0.23502 0.341514
280 1 0.378472 0.222852 0.470394
340 2 0.421569 0.227885 0.340571
63 1 0.474579 0.99856 0.452951
162 1 0.526795 0.142198 0.234198
44 1 0.561884 0.119123 0.3925
309 2 0.599375 0.0527306 0.489936
193 1 0.720072 0.096951 0.427864
80 1 0.523131 0.00333719 0.293692
17 1 0.952566 0.0667348 0.440683
158 1 0.825764 0.251451 0.324676
331 2 0.864943 0.153282 0.417582
327 2 0.973727 0.226376 0.481383
45 1 0.838927 0.0710584 0.318868
223 1 0.986226 0.196488 0.359514
35 1 0.788423 0.246388 0.472665
20 1 0.983407 0.0483813 0.284136
43 1 0.0632704 0.356948 0.293203
207 1 0.0752064 0.29653 0.46826
306 2 0.168862 0.338152 0.365274
161 1 0.228218 0.270073 0.469853
111 1 0.16176 0.428116 0.46028
148 1 0.0100844 0.458997 0.398466
235 1 0.278373 0.397828 0.330174
133 1 0.412441 0.346599 0.384371
172 1 0.474955 0.485886 0.479783
157 1 0.381983 0.498218 0.307063
87 1 0.668075 0.236752 0.373854
312 2 0.499061 0.435276 0.334625
321 2 0.665635 0.348561 0.318833
114 1 0.526981 0.267526 0.465534
233 1 0.541939 0.301987 0.288486
25 1 0.62284 0.458478 0.280923
119 1 0.604429 0.401374 0.427175
125 1 0.630795 0.525019 0.533796
186 1 0.749232 0.40077 0.386701
39 1 0.917712 0.33729 0.432164
14 1 0.871664 0.440674 0.321743
185 1 0.871304 0.503436 0.464045
243 1 -0.00632513 0.526728 0.259411
228 1 0.0208734 0.600746 0.393236
75 1 0.148176 0.504987 0.333398
187 1 0.195108 0.651244 0.372132
339 2 0.988583 0.690337 0.521863
319 2 0.236525 0.562266 0.272543
310 2 0.221344 0.708417 0.261573
144 1 0.329597 0.65702 0.275276
175 1 0.416135 0.622035 0.418152
261 1 0.276312 0.534135 0.408104
83 1 0.508063 0.69766 0.303127
159 1 0.666558 0.639275 0.306081
360 2 0.5297 0.715082 0.435493
266 1 0.562576 0.562211 0.385593
190 1 0.678714 0.699589 0.459137
355 2 0.784142 0.681941 0.230283
316 2 0.795836 0.735707 0.494838
123 1 0.731461 0.544528 0.410192
109 1 0.858527 0.599319 0.307115
137 1 0.934911 0.724922 0.291361
122 1 0.87837 0.655961 0.44433
53 1 0.780397 0.752053 0.337683
29 1 0.0513254 0.746059 0.384437
209 1 0.0246118 0.932239 0.43422
294 2 0.130359 0.923961 0.356629
230 1 0.160934 0.855332 0.469543
323 2 0.234341 0.75096 0.448802
238 1 0.229069 0.813988 0.324839
191 1 0.255461 0.969359 0.372768
19 1 0.364484 0.758001 0.401093
132 1 0.399295 0.935773 0.314383
347 2 0.342077 0.876225 0.416299
204 1 0.681103 0.0587766 0.281901
70 1 0.494935 0.841965 0.403424
248 1 0.635349 0.818098 0.356082
349 2 0.636084 0.918547 0.264463
176 1 0.636583 0.965903 0.39648
295 2 0.876588 0.829181 0.280367
23 1 0.827169 0.994091 0.446773
96 1 0.736456 0.843083 0.466373
289 2 0.90985 0.943204 0.347871
34 1 1.00354 0.871981 0.297165
165 1 0.76606 0.901156 0.301388
48 1 0.907159 0.834207 0.41486
242 1 0.180328 -0.00349056 0.518017
267 1 0.105975 0.129202 0.724249
150 1 0.213548 0.135897 0.581209
337 2 0.0901994 0.0725054 0.613127
15 1 0.0142543 0.256193 0.749906
142 1 0.347266 0.173724 0.704458
184 1 0.507054 0.13444 0.545757
218 1 0.362093 0.116283 0.56434
177 1 0.441827 0.00446057 0.635939
297 2 0.465334 0.133989 0.65695
168 1 0.280219 0.0179237 0.637261
182 1 0.59383 0.170206 0.674106
279 1 0.703212 0.0596788 0.579659
326 2 0.573585 0.0593637 0.629438
66 1 0.734869 0.0969956 0.726557
272 1 0.650839 0.193592 0.525722
94 1 0.752394 0.946978 0.789217
167 1 0.984254 0.0232765 0.724991
278 1 0.875127 0.155314 0.722181
46 1 0.851447 0.119864 0.537239
41 1 0.986324 0.138483 0.611107
37 1 0.769337 0.217481 0.625615
354 2 0.990697 0.420568 0.514534
9 1 0.103332 0.2532 0.617341
308 2 0.204968 0.358183 0.564093
262 1 0.213481 0.26616 0.726126
322 2 0.0265081 0.362155 0.681303
264 1 0.105709 0.4145 0.603449
61 1 0.3044 0.283995 0.60573
256 1 0.264464 0.426933 0.651977
330 2 0.426548 0.339997 0.524775
11 1 0.32363 0.428614 0.514814
139 1 0.417864 0.422855 0.629087
92 1 0.453704 0.258115 0.622467
216 1 0.37225 0.330871 0.747051
151 1 0.69434 0.34133 0.543623
259 1 0.542477 0.386189 0.568346
296 2 0.512643 0.244029 0.742292
128 1 0.670506 0.450077 0.657751
348 2 0.604304 0.283047 0.625366
27 1 0.690084 0.301734 0.720823
291 2 0.756925 0.473373 0.537088
271 1 0.842378 0.38255 0.546788
81 1 0.949779 0.290496 0.590613
224 1 0.965556 0.468075 0.629541
52 1 0.851236 0.31484 0.710446
332 2 0.131411 0.567355 0.453985
171 1 0.025626 0.563988 0.549384
283 1 0.0960811 0.560548 0.676483
115 1 0.143804 0.692079 0.529288
181 1 0.240578 0.668879 0.643394
118 1 0.0389985 0.694836 0.644749
329 2 0.135892 0.721085 0.723609
275 1 0.206875 0.546686 0.569862
145 1 0.37703 0.561517 0.57265
293 2 0.434875 0.618835 0.670769
79 1 0.283636 0.655486 0.499727
28 1 0.319188 0.553528 0.715158
108 1 0.401262 0.720843 0.593704
100 1 0.519632 0.639502 0.533084
113 1 0.528823 0.536207 0.656462
341 2 0.645586 0.640794 0.572688
240 1 0.673414 0.623506 0.706077
188 1 0.528907 0.711032 0.697211
247 1 0.73195 0.750288 0.602674
10 1 0.820225 0.493972 0.658509
192 1 0.777195 0.606779 0.55581
300 2 0.902328 0.583394 0.572366
257 1 0.881595 0.723246 0.593472
303 2 0.791606 0.686177 0.691429
201 1 0.918915 0.611356 0.701722
226 1 0.153048 0.820565 0.642787
36 1 0.122931 0.963585 0.667053
344 2 0.241256 0.909986 0.606497
126 1 0.237664 0.891835 0.742091
106 1 0.9893 0.979166 0.573406
153 1 0.0201163 0.813499 0.536581
196 1 0.379395 0.706905 0.741718
38 1 0.33632 0.962171 0.504
307 2 0.279994 0.783736 0.674198
82 1 0.448975 0.86691 0.557328
260 1 0.293392 0.813758 0.543325
138 1 0.393518 0.854314 0.711851
232 1 0.611189 0.997974 0.727917
112 1 0.583811 0.803379 0.520592
59 1 0.581734 0.945889 0.569772
97 1 0.569789 0.850842 0.691289
245 1 0.719447 0.913915 0.647828
1 1 0.83338 0.705555 0.809545
342 2 0.927753 0.733936 0.713032
197 1 0.859825 0.0163509 0.636159
343 2 0.711332 0.961456 0.504544
195 1 0.857925 0.876385 0.562408
69 1 0.982672 0.862253 0.685495
315 2 0.888528 0.924675 0.754359
178 1 0.101491 0.212035 1.01106
203 1 0.124793 0.215749 0.847434
335 2 0.202557 0.0260815 0.737121
174 1 0.0259869 0.0568881 0.982325
350 2 0.230985 0.285514 0.84892
5 1 0.409475 0.262959 0.998436
85 1 0.360294 0.0876233 0.921171
156 1 0.237831 0.130624 0.805302
263 1 0.456886 0.128318 0.789161
249 1 0.351317 0.998403 0.774786
140 1 0.622273 0.192944 0.856317
276 1 0.656898 0.0561013 0.879481
152 1 0.516374 0.12505 0.941739
320 2 0.580906 0.106444 0.789302
170 1 0.72915 0.222637 0.953827
314 2 0.573256 0.984733 0.955321
213 1 0.774265 0.0520252 0.998436
127 1 0.983401 0.146508 0.855173
277 1 0.87433 0.17601 0.953617
229 1 0.839859 0.0614865 0.84871
336 2 0.893819 0.237956 0.827595
21 1 0.771459 0.223204 0.810024
357 2 0.90097 0.0227684 0.963022
237 1 0.112781 0.41337 0.753315
121 1 0.143113 0.346593 0.916734
67 1 0.188174 0.506842 0.906862
269 1 0.0464499 0.471989 0.888696
258 1 0.256853 0.409684 0.811607
219 1 0.373667 0.238173 0.857452
71 1 0.281708 0.370697 0.970263
305 2 0.3706 0.366642 0.877428
58 1 0.421654 0.465928 0.776867
40 1 0.49953 0.30663 0.859303
290 2 0.536027 0.237511 0.00640094
180 1 0.550518 0.369972 0.709626
265 1 0.67421 0.348355 0.874478
254 1 0.652768 0.489503 0.942074
202 1 0.506755 0.471025 0.905461
101 1 0.95991 0.412999 0.773814
239 1 0.995475 0.297222 0.892292
225 1 0.792104 0.426692 0.794135
324 2 0.922346 0.433867 0.894673
227 1 0.842435 0.331296 0.908206
31 1 0.80764 0.475335 0.95636
120 1 0.145933 0.623064 0.807149
91 1 0.0669273 0.61607 0.934728
54 1 0.00551728 0.704581 0.806998
60 1 0.121922 0.754863 0.895175
160 1 0.358615 0.487141 0.920426
359 2 0.188908 0.518437 0.762329
16 1 0.248889 0.752021 0.803271
194 1 0.284338 0.615688 0.860276
130 1 0.481816 0.60427 0.804549
30 1 0.392932 0.708276 0.890705
333 2 0.275129 0.749984 0.918876
298 2 0.518364 0.598903 0.936169
164 1 0.641101 0.62971 0.00860512
246 1 0.609155 0.502125 0.794982
198 1 0.62935 0.642965 0.846987
33 1 0.511688 0.720226 -0.0100423
351 2 0.0331495 0.576081 0.787167
107 1 0.759149 0.565799 0.835389
286 1 0.79364 0.631031 0.969842
90 1 0.935919 0.662247 0.0275504
311 2 0.908889 0.680703 0.906955
222 1 0.925281 0.56702 0.860063
250 1 0.108046 0.044376 0.855573
328 2 0.0175234 0.743802 0.982179
117 1 0.0979343 0.917744 0.944308
346 2 0.194085 0.848733 0.866092
98 1 0.079609 0.885105 0.803381
7 1 0.255479 0.983201 0.893467
234 1 0.237266 0.846377 0.990219
301 2 0.382218 0.963646 0.903931
135 1 0.342848 0.847067 0.871155
56 1 0.480651 0.879971 0.950985
352 2 0.489255 0.920351 0.761225
214 1 0.498576 0.994803 0.855741
47 1 0.679162 0.769991 0.748651
353 2 0.580788 0.81309 0.950662
244 1 0.499306 0.798805 0.828669
287 1 0.618034 0.901958 0.844507
274 1 0.686783 0.775736 0.903139
211 1 0.828603 0.817852 0.717522
217 1 0.839071 0.777253 0.96015
78 1 0.934718 0.821862 0.846651
285 1 0.964404 0.965359 0.860928
302 2 0.792537 0.821807 0.843876
116 1 0.83239 0.925764 0.92907
ITEM: TIMESTEP
120000
ITEM: NUMBER OF ATOMS
360
ITEM: BOX BOUNDS pp pp pp
0.0000000000000000e+00 6.6943295008216896e+00
0.0000000000000000e+00 6.6943295008216896e+00
0.0000000000000000e+00 6.6943295008216896e+00
ITEM: ATOMS id type xs ys zs
77 1 0.00259039 0.16047 0.122498
318 2 0.161816 0.0542176 0.110824
189 1 0.198081 0.165443 0.159224
319 2 0.11046 0.215729 0.00434342
51 1 0.0218591 0.0214367 0.0666002
212 1 0.039687 0.0502432 0.234104
76 1 0.415708 0.0965801 0.129918
156 1 0.297518 0.136682 0.0526627
72 1 0.490742 0.204503 0.220943
65 1 0.284511 0.0234654 0.182572
95 1 0.359306 0.247075 0.144723
270 1 0.585786 0.116149 0.12904
84 1 0.743252 0.124798 0.151631
279 1 0.652645 0.0079422 0.231714
88 1 0.86473 0.0652148 0.0569527
324 2 0.919996 0.179522 0.0265717
304 2 0.752231 0.239782 0.204066
50 1 0.86013 0.222382 0.139852
297 2 0.934493 0.0383032 0.159771
103 1 0.184284 0.296828 0.0711697
13 1 0.127854 0.469958 0.208571
3 1 0.184555 0.313909 0.217091
231 1 0.120497 0.420167 0.00888147
327 2 0.0850098 0.255711 0.14905
131 1 0.245481 0.429569 0.12184
215 1 0.0110915 0.283705 0.0431946
284 1 0.00903349 0.433423 0.10958
317 2 0.277586 0.405353 0.239303
251 1 0.332634 0.346313 0.0140372
75 1 0.406025 0.395558 0.1534
208 1 0.499232 0.284745 0.0836727
346 2 0.496486 0.408819 0.061598
321 2 0.51669 0.345871 0.199331
281 1 0.602925 0.408347 0.126099
147 1 0.668078 0.268549 0.115622
355 2 0.746208 0.377396 0.0682321
199 1 0.727279 0.492804 0.133318
278 1 0.874151 0.384582 0.0502032
133 1 0.759844 0.364595 0.196195
99 1 0.985469 0.315323 0.200031
341 2 0.887091 0.391326 0.213602
104 1 0.821695 0.491203 0.247199
31 1 0.788349 0.268745 0.0130892
179 1 0.188157 0.556055 0.0928189
350 2 0.0600467 0.56556 0.137217
220 1 0.0976462 0.691405 0.0983596
54 1 0.0475264 0.555109 0.00642004
292 2 0.237541 0.651902 0.159755
67 1 0.410731 0.512623 0.0383345
154 1 0.365181 0.551747 0.184605
91 1 0.329907 0.708165 0.244469
164 1 0.352956 0.664935 0.085972
4 1 0.473726 0.665816 0.198532
286 1 0.492766 0.643132 0.0511532
130 1 0.573893 0.556693 0.155021
149 1 0.640286 0.702084 0.146456
302 2 0.674287 0.596805 0.0782948
330 2 0.676329 0.608156 0.216019
353 2 0.580519 0.726045 0.00223386
74 1 0.578915 0.518275 0.0126854
206 1 0.740666 0.716356 0.0236399
190 1 0.785719 0.636892 0.158288
254 1 0.875782 0.524361 0.101762
90 1 0.951121 0.653754 0.0574298
294 2 0.997038 0.684261 0.177696
8 1 0.916107 0.614143 0.247925
328 2 0.0538861 0.765652 0.0136273
60 1 0.241688 0.783741 0.126533
221 1 0.144941 0.920585 0.150343
288 1 0.0173809 0.826836 0.123592
6 1 0.161193 0.839168 0.0105328
143 1 0.242982 0.971066 0.0299364
310 2 0.36487 0.771786 0.139611
57 1 0.439369 0.820317 0.235679
268 1 0.379656 0.913132 0.102533
159 1 0.488604 0.805986 0.095557
2 1 0.419412 0.978008 0.248743
141 1 0.287015 0.868622 0.237836
200 1 0.330888 0.792024 0.010577
314 2 0.502619 0.904009 0.174571
165 1 0.693464 0.988799 0.0760793
56 1 0.535882 0.982698 0.0875513
80 1 0.627722 0.850162 0.192877
183 1 0.653977 0.836034 0.0402074
252 1 0.77892 0.842884 0.132309
204 1 0.808031 0.985834 0.186016
137 1 0.881644 0.783756 0.03481
273 1 0.914716 0.923415 0.0959402
253 1 0.876253 0.754571 0.191297
43 1 0.0771008 0.210147 0.268292
12 1 0.172309 0.085985 0.284901
207 1 0.133173 0.134474 0.45169
334 2 0.193657 0.0336545 0.429164
289 2 0.216547 0.204849 0.289526
89 1 0.346433 0.154778 0.262032
340 2 0.444624 0.202871 0.331453
184 1 0.425116 0.0783193 0.426695
59 1 0.276894 0.166491 0.401363
132 1 0.304985 0.0340126 0.335815
313 2 0.619531 0.141636 0.254059
110 1 0.519177 0.0673163 0.292981
114 1 0.559407 0.192352 0.390109
35 1 0.680766 0.0801922 0.451996
354 2 0.623916 0.0106559 0.360863
134 1 0.729131 0.135251 0.295458
92 1 0.721316 0.225801 0.430909
18 1 0.996499 0.136982 0.372996
242 1 0.943269 0.00778334 0.455618
52 1 0.841269 0.111572 0.399109
45 1 0.886455 0.105202 0.256961
333 2 0.95866 0.0294548 0.335259
223 1 0.170436 0.273615 0.381427
210 1 0.0356424 0.278421 0.446849
161 1 0.204942 0.414735 0.348461
267 1 0.128473 0.402939 0.488997
109 1 0.0693543 0.36554 0.314592
243 1 0.498046 0.470074 0.250412
205 1 0.396898 0.255058 0.437138
280 1 0.323344 0.307653 0.298702
11 1 0.363221 0.455262 0.320591
263 1 0.270698 0.331493 0.473148
150 1 0.417906 0.406431 0.454717
235 1 0.47245 0.321525 0.311327
146 1 0.278254 0.488853 0.460425
233 1 0.618319 0.290001 0.264033
172 1 0.561911 0.431562 0.393524
125 1 0.651116 0.466019 0.269784
312 2 0.631893 0.318628 0.391632
37 1 0.542696 0.304804 0.494423
39 1 0.984186 0.477902 0.250666
291 2 0.984339 0.281137 0.328563
87 1 0.856635 0.269905 0.277972
158 1 0.750107 0.355384 0.342057
148 1 0.90526 0.392295 0.342298
27 1 0.830617 0.408895 0.481441
25 1 0.887387 0.252829 0.424265
185 1 0.979327 0.430838 0.468516
123 1 0.226204 0.56814 0.259621
166 1 0.077233 0.503355 0.376954
236 1 0.0699793 0.614345 0.256737
261 1 0.180746 0.725156 0.259092
175 1 0.175351 0.62813 0.398063
241 1 0.00751263 0.641078 0.389131
299 2 0.0897017 0.654591 0.495842
73 1 0.327291 0.605236 0.372128
293 2 0.429711 0.586863 0.302081
157 1 0.444719 0.715951 0.370741
126 1 0.279879 0.74898 0.395846
145 1 0.466313 0.563 0.437733
307 2 0.523578 0.701973 0.468265
42 1 0.563031 0.600142 0.318047
266 1 0.652403 0.707601 0.414124
186 1 0.721154 0.507886 0.404265
83 1 0.582965 0.74099 0.282358
228 1 0.882494 0.546485 0.385983
53 1 0.758482 0.620352 0.313966
295 2 0.906277 0.646687 0.489124
34 1 0.875433 0.709022 0.384043
238 1 0.983025 0.749242 0.497372
119 1 0.776726 0.650343 0.486366
234 1 0.00379421 0.76633 0.27545
323 2 0.203912 0.956666 0.282765
144 1 0.231562 0.891919 0.3948
191 1 0.108584 0.770184 0.395077
32 1 0.105666 0.873629 0.281724
187 1 0.0878873 0.995456 0.378167
298 2 0.354864 0.818161 0.32534
22 1 0.406786 0.909733 0.409739
62 1 0.300051 0.993143 0.483172
96 1 0.731314 0.762253 0.268224
193 1 0.5619 0.989942 0.464799
19 1 0.54242 0.914832 0.308077
100 1 0.544217 0.823142 0.44158
17 1 0.676354 0.873118 0.362572