ITEM: TIMESTEP
0
ITEM: NUMBER OF ATOMS
360
ITEM: BOX BOUNDS pp pp pp
0.0000000000000000e+00 6.6943295008216896e+00
0.0000000000000000e+00 6.6943295008216896e+00
0.0000000000000000e+00 6.6943295008216896e+00
ITEM: ATOMS id type xs ys zs
222 1 0.116886 0.0701494 0.147001
282 1 0.14665 0.201476 0.0462747
180 1 0.140424 0.217545 0.227921
14 1 0.230935 0.0207554 0.235058
219 1 0.0102775 0.191271 0.122406
292 2 0.250214 0.119967 0.0232096
7 1 0.255311 0.155941 0.163745
119 1 0.37168 0.161855 0.0544022
229 1 0.297849 0.00753388 0.0762138
267 1 0.374506 0.0693649 0.200181
249 1 0.447397 0.0290247 0.0425421
200 1 0.407078 0.241322 0.180116
69 1 0.505967 0.117788 0.153909
233 1 0.648943 0.161992 0.0937267
107 1 0.613388 0.0215754 0.0586933
16 1 0.508021 0.242955 0.0494295
191 1 0.618152 0.0117697 0.216106
297 2 0.532082 0.122026 0.0143345
32 1 0.962496 0.049791 0.239038
124 1 0.771395 0.118145 0.201099
179 1 0.768787 0.0564186 0.0335759
213 1 0.896606 0.0484782 0.11221
223 1 0.839399 0.233505 0.0980197
327 2 0.890779 0.165408 0.198952
202 1 0.104872 0.324839 0.132796
50 1 0.0328393 0.480778 0.0661236
346 2 0.153906 0.41756 0.0740001
227 1 0.0217606 0.466114 0.223426
79 1 0.235655 0.401346 0.188183
355 2 0.00722633 0.32668 0.220757
178 1 0.272429 0.281171 0.103533
206 1 0.401643 0.383995 0.236488
25 1 0.327437 0.416454 0.0668807
259 1 0.462992 0.467491 0.116914
334 2 0.422013 0.333336 0.101504
54 1 0.701854 0.284329 0.17262
114 1 0.552177 0.308098 0.191787
44 1 0.648289 0.310088 0.0408301
84 1 0.618341 0.444 0.11979
92 1 0.705798 0.467118 0.247754
131 1 0.762779 0.418373 0.0743585
120 1 0.953864 0.333012 0.108312
324 2 0.920886 0.439651 0.0397685
269 1 0.85451 0.283759 0.230787
166 1 0.867574 0.421906 0.217635
151 1 0.165943 0.538622 0.228668
169 1 0.228548 0.538038 0.0718973
60 1 0.0239108 0.609127 0.173674
296 2 0.158918 0.657146 0.1521
174 1 0.248038 0.741333 0.170671
76 1 0.105809 0.630316 0.0334462
304 2 0.262779 0.623457 0.245703
19 1 0.379122 0.645098 0.194403
133 1 0.316022 0.518634 0.21981
343 2 0.360576 0.541038 0.110152
236 1 0.294586 0.649655 0.0139487
203 1 0.382441 0.747239 0.0795128
313 2 0.626248 0.590171 0.0955979
161 1 0.57184 0.616314 0.201905
38 1 0.506856 0.63139 0.0722837
143 1 0.700143 0.738037 0.182368
34 1 0.682206 0.676052 0.0402759
333 2 0.545099 0.505416 0.0113207
104 1 0.737276 0.560578 0.132242
108 1 0.886708 0.534453 0.114513
332 2 0.975625 0.702934 0.0880052
205 1 0.841993 0.709012 0.136209
20 1 0.963198 0.744896 0.238463
315 2 0.826405 0.614118 0.0399489
284 1 0.96096 0.611468 0.00961504
210 1 0.0872454 0.774273 0.116269
226 1 0.181466 0.920296 0.124915
281 1 0.0092125 0.955334 0.0979922
356 2 0.0601559 0.837277 0.21284
78 1 0.24036 0.794766 0.0309056
277 1 0.0842859 0.95649 0.233509
109 1 0.32325 0.877273 0.154615
116 1 0.481576 0.905082 0.131551
30 1 0.63785 0.869411 0.134557
56 1 0.521008 0.811159 0.0243976
280 1 0.535739 0.762905 0.166779
330 2 0.555783 0.88508 0.23462
320 2 0.739148 0.790806 0.0400579
88 1 0.751797 0.966165 0.164574
273 1 0.938705 0.830318 0.114511
71 1 0.809147 0.897089 0.0470407
158 1 0.791844 0.834294 0.233427
211 1 0.088075 0.0927269 0.314097
294 2 0.109061 0.211325 0.351815
11 1 0.139531 0.163538 0.47909
303 2 0.0914699 0.0336674 0.456492
100 1 0.236586 0.12281 0.368842
354 2 0.317197 0.170267 0.282403
261 1 0.37447 0.0525806 0.344764
80 1 0.365376 0.179912 0.419622
310 2 0.495498 0.0269383 0.420493
253 1 0.456835 0.242281 0.316415
314 2 0.284788 0.00892173 0.430786
81 1 0.494451 0.152032 0.470679
66 1 0.636911 0.167391 0.254447
65 1 0.628471 0.191421 0.423411
163 1 0.693018 0.060936 0.34153
17 1 0.513154 0.10077 0.315423
4 1 0.630427 0.0480441 0.486336
145 1 0.997141 0.132097 0.432851
24 1 0.977841 0.205725 0.282963
209 1 0.855509 0.128638 0.335618
224 1 0.889184 0.0176899 0.433221
23 1 0.760956 0.12198 0.467871
165 1 0.056396 0.296167 0.448138
5 1 0.1332 0.36247 0.302196
345 2 0.0735493 0.416691 0.413741
15 1 0.214607 0.270859 0.411965
142 1 0.184156 0.408462 0.478464
177 1 0.265467 0.439339 0.339139
94 1 0.287379 0.287484 0.272827
42 1 0.362891 0.346663 0.410231
308 2 0.479296 0.370348 0.336347
170 1 0.521693 0.317553 0.453537
159 1 0.552814 0.447546 0.260355
72 1 0.627969 0.333996 0.315827
262 1 0.67787 0.340449 0.459501
128 1 0.571448 0.459099 0.418065
146 1 0.758965 0.261848 0.358877
41 1 0.877458 0.252986 0.462879
305 2 0.753944 0.35765 0.275629
193 1 0.943469 0.358751 0.334653
139 1 0.809357 0.393214 0.399002
86 1 0.960432 0.40047 0.495453
265 1 0.131129 0.527914 0.372939
329 2 0.0248741 0.579394 0.297576
337 2 0.178537 0.661034 0.396693
82 1 0.118518 0.690886 0.258615
266 1 0.0446125 0.628009 0.433831
77 1 0.401647 0.502742 0.362934
95 1 0.273569 0.593564 0.37068
175 1 0.257511 0.73541 0.337472
325 2 0.458058 0.550117 0.251819
157 1 0.397595 0.637383 0.451548
73 1 0.48518 0.665295 0.315077
298 2 0.367158 0.663207 0.3277
217 1 0.261616 0.704977 0.494903
302 2 0.619085 0.697714 0.276719
214 1 0.731281 0.602862 0.29414
293 2 0.623955 0.547876 0.3173
192 1 0.630355 0.647631 0.404887
113 1 0.521693 0.704951 0.491104
144 1 0.730245 0.745548 0.345182
123 1 0.740201 0.527605 0.431203
344 2 0.530905 0.575141 0.470075
45 1 0.684771 0.748358 0.494172
63 1 0.894499 0.595873 0.25015
312 2 0.82874 0.700262 0.27291
238 1 0.963848 0.510713 0.374229
291 2 0.833505 0.519919 0.336335
347 2 0.976193 0.707285 0.358461
242 1 0.880149 0.638116 0.399343
2 1 0.175436 0.844532 0.254539
160 1 0.113677 0.766589 0.476952
13 1 0.16497 0.962326 0.362352
339 2 0.163936 0.825874 0.3773
129 1 0.0407904 0.798636 0.343772
37 1 0.108675 0.915634 0.498073
342 2 0.00808522 0.838427 0.45606
134 1 0.0122015 0.959393 0.390704
276 1 0.393124 0.784863 0.25638
118 1 0.379126 0.766796 0.41495
176 1 0.487209 0.963015 0.284117
208 1 0.266115 0.868938 0.435851
89 1 0.31783 0.914805 0.301435
283 1 0.436069 0.919538 0.436475
326 2 0.733094 0.988743 0.459118
197 1 0.548653 0.808245 0.339499
97 1 0.582669 0.930683 0.407353
147 1 0.678754 0.900942 0.300548
255 1 0.953768 0.897997 0.268885
8 1 0.771034 0.880473 0.424509
127 1 0.825008 0.977104 0.288031
194 1 0.884684 0.806457 0.360148
309 2 0.800779 0.767611 0.454053
212 1 0.0198393 0.192622 0.570171
322 2 0.0845891 0.0848455 0.628845
232 1 0.177213 0.164353 0.649839
199 1 0.203497 0.03174 0.53533
250 1 0.00573647 0.0139792 0.542199
167 1 0.36567 0.0616027 0.513299
247 1 0.289369 0.186257 0.553884
85 1 0.450281 0.135408 0.614513
103 1 0.312761 0.0452229 0.654506
295 2 0.316867 0.166591 0.699584
52 1 0.603046 0.14479 0.611415
21 1 0.684055 0.0203235 0.662865
57 1 0.555939 0.0478799 0.728619
341 2 0.733815 0.112828 0.611744
307 2 0.636259 0.247961 0.528884
287 1 0.82004 0.156187 0.720969
218 1 0.866616 0.124087 0.573893
83 1 0.965456 0.0892296 0.683204
141 1 0.83612 0.00673372 0.729472
331 2 0.035246 0.34145 0.585536
243 1 0.156208 0.29445 0.572426
336 2 0.196908 0.40269 0.617436
264 1 0.0979223 0.353794 0.695464
154 1 0.0806084 0.457768 0.561124
22 1 0.315274 0.496722 0.502254
36 1 0.283442 0.288599 0.677309
351 2 0.280439 0.327874 0.517519
53 1 0.335688 0.41198 0.621195
26 1 0.455367 0.430805 0.529465
40 1 0.413495 0.270862 0.553893
126 1 0.437606 0.32893 0.707256
96 1 0.552761 0.295167 0.613062
275 1 0.533385 0.470502 0.659154
68 1 0.699912 0.272328 0.690841
59 1 0.646775 0.412465 0.59001
272 1 0.765629 0.264748 0.561044
3 1 0.82228 0.402852 0.556036
130 1 0.800402 0.398012 0.714957
43 1 0.902792 0.275056 0.650159
279 1 0.956475 0.426537 0.665137
258 1 0.190265 0.570689 0.516589
184 1 0.155708 0.708734 0.605599
216 1 0.199838 0.515643 0.667343
328 2 0.14673 0.635633 0.705662
122 1 0.044947 0.672636 0.748566
241 1 0.0258162 0.573436 0.636462
349 2 0.0406243 0.698805 0.555492
48 1 0.308716 0.615018 0.606273
51 1 0.452973 0.58066 0.57916
306 2 0.280224 0.736571 0.63044
90 1 0.381847 0.686148 0.712205
137 1 0.368207 0.515754 0.716353
289 2 0.284537 0.614821 0.7325
359 2 0.742781 0.520064 0.560119
196 1 0.622384 0.564936 0.541455
27 1 0.68213 0.657121 0.649266
248 1 0.683206 0.524604 0.710532
335 2 0.574948 0.599355 0.69092
185 1 0.522977 0.713208 0.661216
74 1 0.923252 0.727226 0.508356
190 1 0.776891 0.639905 0.527911
187 1 0.946892 0.553073 0.511745
61 1 0.850292 0.552672 0.646655
138 1 0.903418 0.695118 0.665632
274 1 0.211887 0.959162 0.693475
132 1 0.215351 0.836868 0.591542
348 2 0.0888445 0.917205 0.63276
31 1 0.0152775 0.813317 0.590504
228 1 0.129466 0.811864 0.713588
111 1 0.393444 0.768056 0.573951
195 1 0.438075 0.939267 0.686604
239 1 0.321115 0.829538 0.694188
318 2 0.477035 0.829701 0.644138
136 1 0.342272 0.923982 0.560571
299 2 0.314294 0.94259 0.748911
18 1 0.506002 0.988843 0.558728
263 1 0.535816 0.841983 0.539533
106 1 0.583137 0.900962 0.678207
105 1 0.676762 0.904077 0.548814
353 2 0.653527 0.789543 0.617705
149 1 0.633111 0.772749 0.746032
35 1 0.903142 0.88911 0.507476
317 2 0.999167 0.803721 0.726394
323 2 0.799941 0.767105 0.717548
39 1 0.797213 0.981167 0.571949
357 2 0.919947 0.974857 0.61671
257 1 0.798638 0.780357 0.588089
204 1 0.904125 0.864395 0.66029
148 1 0.751368 0.875387 0.695091
101 1 0.0358617 0.0776696 0.988691
10 1 0.0657059 0.199706 0.761982
91 1 0.132686 0.135067 0.900722
260 1 0.11807 0.0577322 0.754119
49 1 0.0231504 0.227836 0.903357
135 1 0.25888 0.115262 0.796566
271 1 0.280489 0.198701 0.928716
102 1 0.307105 0.0489143 0.914178
150 1 0.438421 0.157234 0.917289
270 1 0.412754 0.0587092 0.781331
168 1 0.367551 0.213006 0.796578
164 1 0.669556 0.038188 0.914735
182 1 0.536367 0.199852 0.755537
189 1 0.524431 0.0492469 0.884756
70 1 0.682503 0.134743 0.795696
360 2 0.708718 0.0159131 0.798321
285 1 0.602049 0.194731 0.925774
198 1 0.816904 0.110624 0.866536
121 1 0.910097 0.163226 0.976122
29 1 0.986437 0.0934271 0.844448
358 2 0.9246 0.204769 0.826538
240 1 0.896072 0.00563209 0.966799
99 1 0.759212 0.203032 0.973279
288 1 0.0657214 0.338369 0.984185
286 1 0.131804 0.477267 0.953451
230 1 0.227546 0.436521 0.780768
1 1 0.103093 0.360367 0.8422
156 1 0.22039 0.333522 0.973378
207 1 0.210723 0.26067 0.814476
251 1 0.379992 0.299863 0.982749
290 2 0.418457 0.411214 0.949459
256 1 0.33703 0.348393 0.845437
245 1 0.462282 0.440233 0.816555
58 1 0.303727 0.475766 0.911819
268 1 0.523561 0.308993 0.852459
188 1 0.60473 0.384406 0.754349
316 2 0.664964 0.266529 0.818925
87 1 0.702094 0.355922 0.898738
183 1 0.533032 0.382617 0.983569
47 1 0.58216 0.485026 0.883674
6 1 0.747262 0.481716 0.845829
125 1 0.906611 0.495534 0.792239
252 1 0.982832 0.470526 0.922245
140 1 0.953475 0.326866 0.786785
112 1 0.888806 0.319768 0.965164
231 1 0.817894 0.28126 0.805877
300 2 0.859709 0.409578 0.86649
172 1 0.227484 0.725102 0.756441
171 1 0.0644518 0.503062 0.75453
311 2 0.212128 0.572997 0.956305
55 1 0.166445 0.707013 0.908154
225 1 0.196091 0.591134 0.818896
93 1 0.0458608 0.597755 0.876063
64 1 0.0265682 0.73126 0.957659
237 1 0.417741 0.540038 0.974938
98 1 0.362533 0.613127 0.848559
221 1 0.442434 0.717239 0.937782
181 1 0.488661 0.580539 0.764551
246 1 0.689009 0.525684 0.980945
9 1 0.553188 0.61719 0.932112
186 1 0.639885 0.634979 0.804777
350 2 0.514972 0.708871 0.827788
46 1 0.844103 0.505538 0.959571
28 1 0.798824 0.633273 0.756812
352 2 0.910799 0.587148 0.893091
155 1 0.792379 0.644653 0.909655
234 1 0.924386 0.69848 0.837124
220 1 0.859283 0.742094 0.987866
235 1 0.00573126 0.947898 0.759911
152 1 0.170245 0.990887 0.994814
62 1 0.111971 0.849993 0.978096
321 2 0.182329 0.978406 0.838185
254 1 0.060032 0.960777 0.89257
75 1 0.0644418 0.815701 0.841533
173 1 0.227002 0.86375 0.818921
301 2 0.273049 0.874357 0.934683
244 1 0.381469 0.880917 0.99844
110 1 0.340065 0.774019 0.842202
319 2 0.449949 0.83171 0.898331
278 1 0.389871 0.924611 0.851719
12 1 0.476352 0.826959 0.760276
340 2 0.531239 0.935517 0.805407
117 1 0.66712 0.88939 0.991342
162 1 0.529551 0.909372 0.925907
33 1 0.663045 0.894563 0.829898
201 1 0.624167 0.751938 0.903782
67 1 0.765516 0.774041 0.837804
115 1 0.911874 0.843117 0.821784
338 2 0.901435 0.996297 0.83972
215 1 0.955253 0.865241 0.95957
153 1 0.7878 0.947962 0.880495
ITEM: TIMESTEP
50000
ITEM: NUMBER OF ATOMS
360
ITEM: BOX BOUNDS pp pp pp
0.0000000000000000e+00 6.6943295008216896e+00
0.0000000000000000e+00 6.6943295008216896e+00
0.0000000000000000e+00 6.6943295008216896e+00
ITEM: ATOMS id type xs ys zs
62 1 0.186642 0.129975 0.180363
180 1 0.252412 0.187419 0.0395757
152 1 0.0950624 0.183336 0.0795059
332 2 0.102189 0.0551508 0.0974888
135 1 0.226026 0.0328585 0.0509837
211 1 0.0371752 0.100257 0.203807
189 1 0.351512 0.150419 0.178693
150 1 0.380362 0.0528582 0.041686
116 1 0.4564 0.984501 0.145402
102 1 0.407804 0.218705 0.0344824
271 1 0.398408 0.279803 0.271975
265 1 0.278229 0.297613 0.1495
344 2 0.42071 0.956897 0.268952
229 1 0.523412 0.113132 0.0771344
233 1 0.526734 0.219912 0.191182
267 1 0.617727 0.0689759 0.188962
44 1 0.671978 0.204565 0.159323
297 2 0.703112 0.217209 0.0263298
213 1 0.917318 0.0495359 0.0233332
315 2 0.97329 0.149416 0.0914179
158 1 0.812059 0.158531 0.0823987
223 1 0.900108 0.163077 0.232239
17 1 0.794213 0.0318319 0.154538
292 2 0.147068 0.256906 0.158382
91 1 0.147533 0.337638 0.0536783
227 1 0.0713555 0.466311 0.111402
322 2 0.0348525 0.369928 0.00651322
60 1 0.0239862 0.392799 0.232065
79 1 0.168329 0.399776 0.202163
5 1 0.244607 0.465745 0.0863956
202 1 0.417797 0.366881 0.103166
308 2 0.382605 0.481932 0.153481
210 1 0.345059 0.617725 0.212059
183 1 0.392757 0.487556 0.0160212
25 1 0.536353 0.477353 0.105164
119 1 0.527659 0.376617 0.216411
84 1 0.561638 0.267137 0.0280382
214 1 0.663061 0.363046 0.141407
104 1 0.657599 0.441814 0.00617975
294 2 0.622394 0.283899 0.248929
99 1 0.77488 0.317446 0.978734
293 2 0.749549 0.38805 0.232373
269 1 0.971235 0.259598 0.133564
101 1 0.81221 0.300948 0.127143
45 1 0.782643 0.461231 0.140647
139 1 0.872352 0.397245 0.231245
222 1 0.921991 0.387286 0.0642549
254 1 0.914915 0.236884 0.988574
169 1 0.178639 0.590392 0.151752
277 1 0.085416 0.705485 0.245534
76 1 0.0346699 0.626541 0.117656
110 1 0.149944 0.701671 0.062935
286 1 0.123591 0.559861 0.00712378
95 1 0.452988 0.619374 0.0771611
174 1 0.323008 0.746685 0.146187
133 1 0.387186 0.769717 0.00805001
156 1 0.304714 0.616679 0.0600749
38 1 0.476833 0.699735 0.1965
302 2 0.385255 0.745888 0.259068
253 1 0.462203 0.521374 0.240729
92 1 0.624723 0.487729 0.255392
343 2 0.545134 0.602404 0.153934
143 1 0.594469 0.753071 0.0531411
58 1 0.606528 0.597904 0.0227192
325 2 0.682118 0.715278 0.134163
194 1 0.672868 0.616194 0.200389
305 2 0.660577 0.516232 0.117983
166 1 0.938947 0.516105 0.163522
339 2 0.961374 0.630811 0.241177
205 1 0.750624 0.620957 0.0710386
312 2 0.860889 0.732005 0.0658402
266 1 0.820381 0.63377 0.195104
131 1 0.901184 0.607082 0.0333767
64 1 0.151255 0.973463 0.19874
93 1 0.0206411 0.80433 0.0776164
273 1 0.154786 0.89181 0.0751303
122 1 0.011298 0.965979 0.114974
20 1 0.0451011 0.856897 0.220772
109 1 0.188325 0.809066 0.2081
311 2 0.265768 0.661492 0.954185
226 1 0.302096 0.997345 0.191292
203 1 0.483687 0.828037 0.122098
356 2 0.240939 0.787065 0.0435595
78 1 0.313192 0.90658 0.0256964
304 2 0.362356 0.865 0.144786
280 1 0.54218 0.932255 0.246353
191 1 0.588065 0.94354 0.0676402
320 2 0.677195 0.855145 0.110968
147 1 0.682138 0.939329 0.204389
71 1 0.755893 0.956268 0.0288443
144 1 0.61405 0.786745 0.20306
215 1 0.926964 0.761116 0.180172
108 1 0.766792 0.806906 0.185551
313 2 0.844576 0.91475 0.191876
134 1 0.927197 0.0022693 0.226541
284 1 0.866593 0.866423 0.0755343
34 1 0.744491 0.795404 0.0313361
327 2 0.265304 0.107504 0.27725
7 1 0.157466 0.103573 0.340931
331 2 0.0859136 0.195386 0.38983
334 2 0.218464 0.0236561 0.450526
42 1 0.0953358 0.237318 0.261175
224 1 0.0839758 0.0695373 0.469586
145 1 0.229703 0.143991 0.514374
14 1 0.24742 0.237284 0.274506
2 1 0.319146 0.00971731 0.34311
165 1 0.345569 0.15554 0.36338
167 1 0.333285 0.0105832 0.492728
295 2 0.449901 0.0523874 0.440195
66 1 0.460468 0.076499 0.289761
69 1 0.573724 0.0188736 0.453352
3 1 0.615183 0.172903 0.309408
26 1 0.509812 0.157601 0.422601
18 1 0.701721 0.119935 0.433194
24 1 0.976408 0.134349 0.367673
124 1 0.760574 0.105624 0.295237
218 1 0.827471 0.198268 0.409928
326 2 0.877298 0.0561275 0.332946
65 1 0.827137 0.0354443 0.43413
291 2 0.0266356 0.329728 0.412669
355 2 0.216434 0.367548 0.312227
258 1 0.112432 0.420799 0.362627
151 1 0.164112 0.292472 0.415002
296 2 0.303012 0.484209 0.522423
100 1 0.320645 0.435199 0.249512
314 2 0.327345 0.284709 0.383436
177 1 0.289367 0.418916 0.416097
161 1 0.432304 0.418492 0.341035
170 1 0.427758 0.312372 0.449259
11 1 0.27979 0.281872 0.507262
289 2 0.374807 0.517666 0.345467
94 1 0.518529 0.287875 0.344854
114 1 0.662962 0.345476 0.346628
333 2 0.559115 0.428296 0.352701
192 1 0.649635 0.252947 0.457924
196 1 0.573325 0.386134 0.474772
303 2 0.733652 0.340602 0.446198
86 1 0.996764 0.222786 0.483139
262 1 0.761834 0.254001 0.270904
272 1 0.80102 0.389609 0.372835
146 1 0.927282 0.283047 0.325606
123 1 0.950166 0.41838 0.373164
120 1 0.0595375 0.537806 0.263962
347 2 0.0273727 0.522315 0.410721
50 1 0.221874 0.535905 0.338945
74 1 0.0791723 0.641935 0.418339
337 2 0.118561 0.761077 0.511291
175 1 0.210259 0.728494 0.437172
77 1 0.418859 0.651302 0.341932
82 1 0.242201 0.692661 0.298177
51 1 0.363002 0.775967 0.40075
48 1 0.324928 0.588962 0.447479
298 2 0.231224 0.81165 0.334063
200 1 0.572945 0.675855 0.305265
113 1 0.683333 0.489705 0.40792
72 1 0.529633 0.544147 0.38474
190 1 0.535463 0.729059 0.456953
257 1 0.710822 0.619648 0.350376
309 2 0.833623 0.647156 0.330666
359 2 0.945552 0.633358 0.43371
63 1 0.78298 0.508807 0.287103
242 1 0.830917 0.537164 0.435211
157 1 0.926657 0.55162 0.328356
255 1 0.957201 0.714968 0.326553
163 1 0.841421 0.709418 0.452896
23 1 0.0452524 0.994094 0.305808
209 1 0.179867 0.938161 0.338328
41 1 0.103912 0.910486 0.479689
129 1 0.0934782 0.815399 0.360439
261 1 0.446288 0.93123 0.394211
89 1 0.273159 0.88261 0.448863
19 1 0.340533 0.865033 0.277818
197 1 0.421549 0.873027 0.528016
159 1 0.489384 0.797327 0.306975
54 1 0.648484 0.00632283 0.328505
330 2 0.700024 0.725555 0.267103
96 1 0.71371 0.930954 0.495683
8 1 0.686211 0.757106 0.420678
176 1 0.591441 0.878637 0.398954
310 2 0.713881 0.85186 0.291373
13 1 0.99239 0.785958 0.458973
4 1 0.81323 0.777506 0.321428
32 1 0.939465 0.874339 0.329718
35 1 0.808581 0.953044 0.310807
88 1 0.842073 0.855387 0.444006
212 1 0.972023 0.979784 0.446777
15 1 0.120992 0.247101 0.570531
83 1 0.15903 0.0955126 0.644252
329 2 0.0352463 0.148731 0.56702
121 1 0.0635925 0.196347 0.69775
232 1 0.380599 0.170122 0.515104
52 1 0.341806 0.096337 0.647868
22 1 0.255094 0.220653 0.653012
182 1 0.390153 0.223878 0.731582
245 1 0.548245 0.163778 0.772209
307 2 0.532146 0.240162 0.520728
81 1 0.492308 0.190844 0.631647
231 1 0.678671 0.194248 0.685523
148 1 0.711518 0.945674 0.64843
70 1 0.610761 0.125878 0.549899
127 1 0.904609 0.124291 0.540666
68 1 0.759671 0.0768676 0.579136
198 1 0.945133 0.0758105 0.68937
21 1 0.826201 0.169325 0.705199
341 2 0.0600453 0.342711 0.652728
154 1 0.168962 0.327254 0.706962
349 2 0.20815 0.381799 0.510661
184 1 0.0518032 0.39231 0.520098
111 1 0.177259 0.442254 0.603572
53 1 0.313428 0.387204 0.610929
59 1 0.424081 0.455543 0.506499
247 1 0.457267 0.341518 0.614398
40 1 0.410705 0.496002 0.663851
351 2 0.313807 0.318692 0.711061
6 1 0.575793 0.442986 0.622636
188 1 0.61081 0.297586 0.598721
130 1 0.717492 0.353698 0.687127
128 1 0.695524 0.403358 0.544824
16 1 0.559495 0.310686 0.745268
193 1 0.892673 0.346011 0.493398
39 1 0.935554 0.25826 0.624733
43 1 0.767344 0.253669 0.567043
345 2 0.832289 0.350019 0.609358
279 1 0.938649 0.410957 0.653064
140 1 0.860797 0.318131 0.761891
248 1 0.817962 0.496383 0.590074
160 1 0.150232 0.513736 0.471932
132 1 0.14956 0.664072 0.575819
37 1 0.0571629 0.546968 0.628908
260 1 0.257273 0.705973 0.678835
208 1 0.00251943 0.670159 0.547231
275 1 0.456609 0.610334 0.537372
216 1 0.278826 0.581297 0.61128
12 1 0.398258 0.645164 0.719632
276 1 0.331311 0.716598 0.543011
283 1 0.48036 0.753395 0.600951
350 2 0.505398 0.456604 0.799356
138 1 0.599872 0.556084 0.519708
181 1 0.543098 0.586615 0.665955
27 1 0.688433 0.532852 0.653674
97 1 0.634124 0.7002 0.584283
340 2 0.532075 0.700404 0.718574
238 1 0.950105 0.526689 0.523405
300 2 0.81416 0.447532 0.713548
241 1 0.00917391 0.713661 0.702675
61 1 0.730308 0.623018 0.501774
323 2 0.854658 0.624966 0.559648
125 1 0.907038 0.595661 0.677328
31 1 0.782715 0.668667 0.659439
360 2 0.0128825 0.973588 0.727432
306 2 0.132158 0.740302 0.675078
136 1 0.205758 0.975846 0.56985
118 1 0.205238 0.819236 0.582822
103 1 0.0213521 0.984645 0.594033
55 1 0.143129 0.931158 0.705448
199 1 0.0502124 0.816732 0.596198
318 2 0.0507666 0.825041 0.738446
80 1 0.469382 0.0328527 0.573625
90 1 0.275828 0.84826 0.732365
85 1 0.336539 0.94607 0.636235
353 2 0.346226 0.817046 0.629833
185 1 0.446601 0.85956 0.710561
73 1 0.579111 0.881381 0.549337
106 1 0.752739 0.796018 0.572478
153 1 0.630558 0.826075 0.696232
195 1 0.611289 0.0464518 0.688479
342 2 0.955372 0.88182 0.547833
105 1 0.890775 0.763955 0.603276
204 1 0.862697 0.96257 0.573893
173 1 0.939389 0.880389 0.682231
141 1 0.791009 0.83652 0.717444
321 2 0.0728474 0.202948 0.830349
274 1 0.0810998 0.99033 0.979955
207 1 0.0887696 0.0626932 0.805222
239 1 0.276262 0.0425305 0.912409
126 1 0.202631 0.199939 0.801131
278 1 0.266504 0.032197 0.767833
301 2 0.333376 0.138628 0.807152
168 1 0.313457 0.211601 0.89925
249 1 0.468292 0.213879 0.893028
268 1 0.431247 0.066192 0.898942
107 1 0.664863 0.0887665 0.0391063
285 1 0.701818 0.0982822 0.801175
299 2 0.585611 0.0365697 0.81904
87 1 0.624509 0.180115 0.928079
57 1 0.572339 0.0312823 0.947854
352 2 0.684668 0.979594 0.925862
287 1 0.939114 0.0396718 0.837227
179 1 0.823708 0.00224534 0.723975
29 1 0.944999 0.18515 0.814228
281 1 0.00867938 0.131457 0.944413
338 2 0.832785 0.10233 0.803073
49 1 0.788853 0.152382 0.940585
117 1 0.800739 0.00114805 0.895947
187 1 0.0822178 0.443916 0.74498
1 1 0.0132558 0.314689 0.77182
336 2 0.139473 0.326092 0.840352
36 1 0.057124 0.271286 0.930702
264 1 0.146598 0.422065 0.92612
357 2 0.0276076 0.418557 0.845007
219 1 0.991616 0.487115 0.976368
243 1 0.165 0.133548 0.932943
206 1 0.281729 0.514294 0.941266
354 2 0.179622 0.260058 0.949194
142 1 0.26485 0.467245 0.73719
256 1 0.263068 0.348008 0.839416
178 1 0.308114 0.337569 0.989161
251 1 0.410176 0.373704 0.771004
137 1 0.39501 0.521652 0.830919
259 1 0.451968 0.357248 0.924449
290 2 0.349828 0.416768 0.889941
47 1 0.725937 0.266375 0.829319
155 1 0.618733 0.340308 0.900411
28 1 0.632781 0.453416 0.781295
10 1 0.923326 0.472451 0.780693
112 1 0.767766 0.426501 0.851431
288 1 0.925469 0.365073 0.902932
282 1 0.801699 0.47101 0.996689
316 2 0.853003 0.23983 0.866783
228 1 0.126928 0.62226 0.735518
171 1 0.0754555 0.546715 0.864026
346 2 0.18072 0.518063 0.826347
230 1 0.159182 0.661648 0.900342
328 2 0.042819 0.70535 0.830709
172 1 0.0214244 0.685887 0.97186
30 1 0.509037 0.693924 0.949896
98 1 0.27441 0.618808 0.797381
237 1 0.378831 0.634534 0.914041
236 1 0.383422 0.755714 0.81889
246 1 0.525513 0.504028 0.939276
149 1 0.522719 0.598411 0.810839
33 1 0.660016 0.674077 0.742958
9 1 0.662808 0.715333 0.901878
220 1 0.662673 0.558297 0.881798
358 2 0.00418286 0.563464 0.760268
348 2 0.876728 0.722442 0.734664
324 2 0.872154 0.522712 0.890476
67 1 0.783602 0.556718 0.776933
46 1 0.927902 0.643744 0.836249
234 1 0.792957 0.604178 0.929443
201 1 0.789406 0.713042 0.814877
217 1 0.148049 0.767182 0.799593
250 1 0.0364697 0.927629 0.833348
75 1 0.0909228 0.825216 0.936246
244 1 0.180682 0.930014 0.849544
319 2 0.464174 0.839885 0.890296
225 1 0.272193 0.809143 0.906584
270 1 0.461987 0.923809 0.996669
263 1 0.430307 0.0477923 0.749933
221 1 0.340493 0.919891 0.846236
186 1 0.554242 0.776611 0.823003
335 2 0.685062 0.795642 0.809904
162 1 0.624265 0.860812 0.928751
56 1 0.504284 0.939722 0.82522
164 1 0.673193 0.938136 0.798949
252 1 0.882142 0.772215 0.958133
240 1 0.774786 0.850504 0.877881
235 1 0.954325 0.901321 0.955889
115 1 0.934328 0.786841 0.818511
317 2 0.898193 0.907354 0.841285
ITEM: TIMESTEP
100000
ITEM: NUMBER OF ATOMS
360
ITEM: BOX BOUNDS pp pp pp
0.0000000000000000e+00 6.6943295008216896e+00
0.0000000000000000e+00 6.6943295008216896e+00
0.0000000000000000e+00 6.6943295008216896e+00
ITEM: ATOMS id type xs ys zs
331 2 0.948912 0.0209264 0.25262
136 1 0.112581 0.0908749 0.20369
322 2 0.12187 0.156708 0.0455275
64 1 0.232292 0.207525 0.123878
36 1 0.00909629 0.112861 0.0878613
76 1 0.0873294 0.257887 0.128792
165 1 0.295414 0.0709855 0.172071
71 1 0.450688 0.0427018 0.162941
178 1 0.388399 0.195618 0.158072
152 1 0.342004 0.133277 0.0185429
119 1 0.494623 0.231291 0.270202
3 1 0.386562 0.12683 0.30932
87 1 0.63314 0.0658912 0.0744406
259 1 0.521326 0.191264 0.100394
84 1 0.690302 0.220276 0.117822
280 1 0.588931 0.108209 0.221612
269 1 0.958931 0.149645 0.215702
213 1 0.840732 0.146793 0.0900158
326 2 0.84858 0.073558 0.203908
124 1 0.823449 0.216785 0.212527
320 2 0.869413 0.026531 0.0264499
20 1 0.940233 0.962915 0.133411
44 1 0.787038 0.00653117 0.110792
131 1 0.999448 0.390204 0.0557775
62 1 0.0601523 0.385155 0.23817
120 1 0.156758 0.388926 0.123069
285 1 0.0469252 0.253777 -0.00777234
292 2 0.273455 0.482298 0.172026
156 1 0.329625 0.389162 0.0971028
5 1 0.478796 0.438452 0.0262534
271 1 0.463865 0.335387 0.152442
183 1 0.416583 0.458446 0.240795
60 1 0.259886 0.34691 0.233415
327 2 0.324635 0.225631 0.935467
350 2 0.435654 0.403872 0.900138
265 1 0.669981 0.385465 0.170704
246 1 0.588759 0.303834 0.0509689
305 2 0.589728 0.295885 0.174984
210 1 0.551801 0.492162 0.17566
211 1 0.946116 0.267985 0.125991
344 2 0.814853 0.275721 0.0877893
166 1 0.733753 0.36501 0.0315045
42 1 0.847404 0.376711 0.144547
255 1 0.945329 0.492003 0.198358
129 1 0.132481 0.674064 0.125902
109 1 0.0630443 0.521864 0.0824792
174 1 0.125696 0.622768 0.979194
243 1 0.228379 0.526725 0.049688
95 1 0.263887 0.607147 0.180774
346 2 0.355926 0.68651 0.141998
133 1 0.273446 0.67965 0.0294889
206 1 0.383791 0.54532 0.11351
25 1 0.483156 0.639015 0.188568
234 1 0.625309 0.468651 0.0400679
58 1 0.516722 0.595426 0.0522092
92 1 0.638872 0.615153 0.170656
359 2 0.674358 0.587648 0.043574
319 2 0.59152 0.67732 0.271538
282 1 0.886662 0.503301 0.0471668
104 1 0.767382 0.502659 0.129402
302 2 0.999802 0.658464 0.0487554
45 1 0.782858 0.686342 0.0646342
117 1 0.901033 0.620929 0.132313
252 1 0.985921 0.750737 0.151854
212 1 0.0862538 0.95896 0.098379
110 1 0.123155 0.824156 0.148663
270 1 0.236424 0.908556 0.104589
169 1 0.0772657 0.770619 0.016178
298 2 0.210408 0.979143 0.197755
340 2 0.224246 0.807011 0.0440707
313 2 0.0084608 0.863388 0.088206
30 1 0.42887 0.752588 0.0398817
102 1 0.374056 0.986146 0.0463951
273 1 0.269627 0.778256 0.155534
89 1 0.349832 0.931765 0.201774
356 2 0.350167 0.849451 0.0910499
51 1 0.435147 0.798363 0.205755
268 1 0.484215 0.890285 0.10644
162 1 0.683097 0.827089 0.0631002
304 2 0.546068 0.816805 0.0194714
203 1 0.565716 0.742691 0.114012
144 1 0.612533 0.944988 0.167388
205 1 0.701533 0.742561 0.203419
191 1 0.479835 0.973518 0.291458
317 2 0.69386 0.963898 0.0368537
315 2 0.735153 0.905603 0.159745
34 1 0.92665 0.776248 0.00477441
143 1 0.835323 0.825205 0.153141
134 1 0.942233 0.876022 0.249157
17 1 0.806987 0.963768 0.249208
164 1 0.81747 0.898829 0.0207267
167 1 0.152363 0.224104 0.466924
65 1 0.0386255 0.0899513 0.345463
295 2 0.15736 0.113636 0.404033
224 1 0.086078 0.229476 0.269413
151 1 0.232589 0.201079 0.27677
168 1 0.210634 0.05237 0.523418
26 1 0.227958 0.0384028 0.313941
297 2 0.364319 0.257946 0.262449
232 1 0.281884 0.145446 0.416278
66 1 0.42674 0.00650606 0.420611
233 1 0.452627 0.211676 0.432923
314 2 0.329483 0.24423 0.492829
307 2 0.510792 0.107558 0.501687
18 1 0.726605 0.113445 0.204753
147 1 0.656871 0.253142 0.267186
94 1 0.608386 0.212332 0.48656
214 1 0.546628 0.101777 0.37533
96 1 0.700917 0.133184 0.361728
69 1 0.619437 0.0258351 0.487206
192 1 0.777534 0.990823 0.44234
24 1 0.929496 0.205275 0.416082
223 1 0.842509 0.0980434 0.321622
342 2 0.811336 0.189875 0.464387
35 1 0.894839 0.0638635 0.502345
86 1 0.159179 0.426271 0.379586
154 1 0.0504655 0.315638 0.395143
258 1 0.121526 0.501077 0.53167
222 1 0.994823 0.458607 0.354775
184 1 0.230248 0.385443 0.522279
15 1 0.25253 0.302729 0.391969
79 1 0.400994 0.349057 0.362087
2 1 0.280247 0.478622 0.301574
308 2 0.320954 0.418174 0.431471
161 1 0.391418 0.345072 0.516778
53 1 0.453478 0.46981 0.445223
309 2 0.569861 0.248109 0.366785
114 1 0.544723 0.356774 0.447538
100 1 0.546151 0.375189 0.293199
72 1 0.630873 0.501883 0.481422
68 1 0.677173 0.39014 0.378398
63 1 0.6749 0.493311 0.267881
291 2 0.748928 0.432907 0.474744
272 1 0.792038 0.267154 0.354986
288 1 0.825028 0.444697 0.280582
146 1 0.930419 0.31727 0.274594
193 1 0.867042 0.382312 0.419185
266 1 0.0181006 0.619269 0.224343
160 1 0.233933 0.518367 0.444701
253 1 0.146606 0.505942 0.237052
74 1 0.183281 0.709044 0.285151
238 1 0.0961744 0.591247 0.369921
343 2 0.237852 0.595605 0.306504
208 1 0.238258 0.673395 0.415091
333 2 0.378086 0.58084 0.243817
38 1 0.335681 0.706645 0.281102
82 1 0.36741 0.579314 0.371972
330 2 0.374484 0.705736 0.406163
14 1 0.518244 0.541785 0.323449
59 1 0.482385 0.711146 0.328237
257 1 0.639622 0.615085 0.361662
145 1 0.539385 0.618862 0.47669
190 1 0.706504 0.645929 0.48651
241 1 0.986329 0.559104 0.496284
8 1 0.783809 0.605607 0.24508
108 1 0.769891 0.700776 0.357807
215 1 0.890172 0.570999 0.343646
123 1 0.756145 0.534927 0.394008
4 1 0.940496 0.687237 0.43129
200 1 0.893206 0.712301 0.278188
339 2 0.117704 0.722588 0.39333
19 1 0.0733639 0.956566 0.248259
32 1 0.0370942 0.750593 0.30901
337 2 0.0124337 0.87852 0.359637
175 1 0.179421 0.824766 0.432329
278 1 0.10743 0.971076 0.410556
54 1 0.0436139 0.80141 0.466292
306 2 0.271176 0.780482 0.358277
294 2 0.349896 1.00384 0.307624
50 1 0.401519 0.836135 0.360246
267 1 0.242031 0.892532 0.292649
209 1 0.279152 0.94277 0.434409
347 2 0.437919 0.893425 0.510487
176 1 0.641209 0.98115 0.308561