ITEM: TIMESTEP
0
ITEM: NUMBER OF ATOMS
360
ITEM: BOX BOUNDS pp pp pp
0.0000000000000000e+00 6.6943295008216896e+00
0.0000000000000000e+00 6.6943295008216896e+00
0.0000000000000000e+00 6.6943295008216896e+00
ITEM: ATOMS id type xs ys zs
130 1 0.00464175 0.145266 0.156704
230 1 0.0393536 0.226493 0.0256376
291 2 0.148553 0.0791452 0.174579
24 1 0.143009 0.219634 0.139741
220 1 0.0942907 0.0976124 0.0380968
265 1 0.291526 0.224727 0.182361
119 1 0.362118 0.0786646 0.15111
64 1 0.472032 0.132555 0.0924076
239 1 0.255432 0.115419 0.0530919
188 1 0.563982 0.0394182 0.0238994
259 1 0.599265 0.191471 0.0405012
185 1 0.621031 0.159513 0.179915
333 2 0.708716 0.221609 0.135532
196 1 0.543445 0.0261792 0.21512
283 1 0.690583 0.0557719 0.105991
352 2 0.685038 0.052188 0.244593
356 2 0.984016 0.0467526 0.0797676
35 1 0.869313 0.221943 0.100759
146 1 0.770205 0.131108 0.19939
275 1 0.86162 0.0254031 0.138129
71 1 0.764446 0.159148 0.0274736
5 1 0.20392 0.34085 0.190615
94 1 0.0990672 0.365432 0.0781501
45 1 0.24067 0.293308 0.0280701
25 1 0.238809 0.458912 0.099806
297 2 0.238314 0.465023 0.244023
23 1 0.0592593 0.3469 0.2439
355 2 0.152872 0.495854 0.00745126
214 1 0.370337 0.461706 0.0143836
80 1 0.362931 0.444997 0.185118
203 1 0.424488 0.280867 0.234654
72 1 0.393972 0.325835 0.0983763
110 1 0.484894 0.496161 0.128402
298 2 0.48033 0.401144 0.0407034
221 1 0.543821 0.311397 0.131868
14 1 0.616012 0.419779 0.0641654
32 1 0.715435 0.304887 0.0302207
152 1 0.671588 0.383806 0.20821
317 2 0.998067 0.294301 0.143487
120 1 0.953515 0.4158 0.15922
337 2 0.838972 0.353362 0.0433385
191 1 0.757092 0.451965 0.056919
18 1 0.806492 0.333947 0.175601
326 2 0.836335 0.47982 0.159775
332 2 0.921998 0.270001 0.229482
92 1 0.0316837 0.509023 0.0485564
208 1 0.110373 0.504451 0.176674
296 2 0.0987749 0.640738 0.158337
288 1 0.0176163 0.717534 0.217616
233 1 0.14411 0.609861 0.0498203
309 2 0.161479 0.721832 0.235617
90 1 0.241357 0.594194 0.159696
164 1 0.0639042 0.745775 0.0658878
153 1 0.378886 0.576271 0.242981
238 1 0.342486 0.718273 0.176062
107 1 0.480167 0.73725 0.065938
197 1 0.319049 0.715661 0.0191619
40 1 0.402455 0.605337 0.0655003
115 1 0.703351 0.522736 0.190601
247 1 0.571571 0.709467 0.186059
252 1 0.640504 0.565064 0.0560618
193 1 0.743178 0.711982 0.163281
320 2 0.553095 0.527051 0.220814
27 1 0.637671 0.745415 0.0517079
266 1 0.967268 0.569666 0.170518
256 1 0.947777 0.658228 0.0691567
347 2 0.875678 0.728863 0.148045
236 1 0.819263 0.605944 0.133964
216 1 0.881959 0.507389 0.038465
282 1 0.24106 0.981643 0.135624
136 1 0.208741 0.779307 0.0963263
36 1 0.0970897 0.926816 0.0372799
198 1 0.111929 0.836491 0.217676
262 1 0.0699396 0.984339 0.167367
86 1 0.357301 0.954236 0.245538
162 1 0.456517 0.972336 0.107697
122 1 0.338377 0.857845 0.0795992
305 2 0.420522 0.834832 0.159857
170 1 0.263873 0.849776 0.20651
339 2 0.408243 0.946003 0.00807274
213 1 0.54923 0.853643 0.176873
16 1 0.677033 0.900931 0.0815079
335 2 0.669253 0.803981 0.158827
109 1 0.52225 0.879661 0.019117
295 2 0.763638 0.943931 0.150219
42 1 0.791078 0.790514 0.0527435
234 1 0.981192 0.853867 0.140069
141 1 0.838305 0.837542 0.215021
59 1 0.948918 0.860239 0.00127322
229 1 0.816243 0.930143 0.0175331
176 1 0.0944607 0.0763291 0.280823
165 1 0.211771 0.173918 0.448345
336 2 0.113911 0.120408 0.399033
219 1 0.0601106 0.232084 0.429761
30 1 0.0195324 0.0198735 0.458059
231 1 0.247805 0.0701565 0.288242
140 1 0.00432087 0.208199 0.294155
223 1 0.466996 0.139479 0.260349
289 2 0.351008 0.125649 0.271551
12 1 0.385323 0.0605499 0.384395
304 2 0.460594 0.0153809 0.308914
276 1 0.491658 0.179474 0.405346
104 1 0.303102 0.210794 0.341164
163 1 0.368203 0.220277 0.475421
161 1 0.631224 0.141812 0.327826
144 1 0.720764 0.192301 0.454537
7 1 0.563357 0.00612476 0.37991
117 1 0.783146 0.0952383 0.363106
133 1 0.902836 0.0926409 0.265487
116 1 0.909062 0.109655 0.42326
217 1 0.836926 0.214632 0.312167
340 2 0.942693 0.232629 0.415668
166 1 0.15229 0.43553 0.337167
227 1 0.167409 0.2526 0.301457
242 1 0.0240313 0.385845 0.420654
240 1 0.00221547 0.480405 0.297116
218 1 0.247841 0.326738 0.425693
58 1 0.320784 0.37765 0.308848
212 1 0.435796 0.319351 0.38541
46 1 0.405811 0.480897 0.361157
321 2 0.345338 0.398159 0.443879
87 1 0.705115 0.258129 0.274235
38 1 0.565434 0.277064 0.289397
226 1 0.575103 0.291348 0.482819
186 1 0.528712 0.413922 0.250507
124 1 0.549731 0.419151 0.403637
137 1 0.712198 0.345985 0.463173
308 2 0.652764 0.368398 0.334837
51 1 0.708455 0.487472 0.492981
272 1 0.86106 0.300091 0.471347
103 1 0.774073 0.418298 0.335549
63 1 0.916952 0.36661 0.318191
194 1 0.884065 0.466576 0.435811
34 1 0.0688672 0.743408 0.379933
237 1 0.107663 0.611489 0.313492
147 1 0.0569715 0.525839 0.425259
342 2 0.174441 0.569551 0.414861
253 1 0.294764 0.51844 0.479673
1 1 0.256493 0.674574 0.456304
273 1 0.26342 0.584636 0.331341
192 1 0.282525 0.729986 0.303383
331 2 0.375294 0.672707 0.341707
157 1 0.391677 0.634824 0.449457
22 1 0.496784 0.718718 0.402203
132 1 0.520024 0.619417 0.280085
245 1 0.646154 0.506327 0.333727
274 1 0.530974 0.569933 0.433464
113 1 0.64759 0.663138 0.32756
134 1 0.607059 0.712041 0.49484
327 2 0.653854 0.581113 0.437333
95 1 0.873168 0.682912 0.290118
2 1 0.779825 0.606279 0.408021
351 2 0.983561 0.621995 0.291653
97 1 0.943684 0.610949 0.412098
359 2 0.760164 0.616536 0.265185
160 1 0.871168 0.538377 0.280022
344 2 0.873066 0.667676 0.494812
246 1 0.176247 0.987839 0.388665
224 1 0.0596535 0.939522 0.328213
358 2 0.16989 0.934826 0.272532
235 1 0.178316 0.832312 0.38465
143 1 0.0128192 0.855332 0.444598
318 2 0.247275 0.851207 0.492631
111 1 0.450137 0.762876 0.268671
310 2 0.357755 0.849455 0.321114
250 1 0.482862 0.898286 0.307131
85 1 0.319978 0.928589 0.399481
26 1 0.375545 0.790248 0.43507
148 1 0.482956 0.897231 0.45232
314 2 0.565382 0.781499 0.288624
10 1 0.708758 0.790084 0.282261
60 1 0.619228 0.823435 0.392059
69 1 0.660876 0.930974 0.255012
158 1 0.730361 0.946697 0.383961
222 1 0.745623 0.760345 0.462669
328 2 0.953801 0.965724 0.257346
102 1 0.884673 0.772932 0.433056
261 1 0.814229 0.963045 0.266023
149 1 0.951138 0.846679 0.304475
345 2 0.794463 0.840376 0.354062
73 1 0.914911 0.969413 0.374923
33 1 0.842447 0.911702 0.478693
350 2 0.212458 0.00205117 0.516989
53 1 0.122372 0.100667 0.527581
83 1 0.0639916 0.248004 0.652281
77 1 0.157206 0.00662108 0.644687
167 1 0.0360406 0.104201 0.663012
156 1 0.21154 0.180521 0.649921
145 1 0.446541 0.101059 0.514181
263 1 0.29596 0.0896878 0.527526
232 1 0.447397 0.0467828 0.670346
180 1 0.3781 0.181902 0.620089
15 1 0.303065 0.0465556 0.68708
76 1 0.495995 0.192106 0.74228
195 1 0.606263 0.091947 0.500671
260 1 0.559349 0.18113 0.60145
168 1 0.71041 0.140736 0.60402
52 1 0.625389 0.0232159 0.647484
189 1 0.748693 0.0558838 0.729661
114 1 0.76915 0.0434647 0.500339
301 2 0.890043 0.022861 0.501895
306 2 0.773002 0.00841927 0.606537
138 1 0.962366 0.196244 0.540101
299 2 0.835188 0.156151 0.703112
49 1 0.927215 0.246606 0.671202
241 1 0.875394 0.0775508 0.618158
307 2 0.8287 0.163078 0.509954
360 2 0.973244 0.0113497 0.701084
209 1 0.138928 0.442353 0.504175
101 1 0.107778 0.42014 0.646147
268 1 0.135912 0.302274 0.525009
56 1 0.216423 0.31967 0.677578
313 2 0.452353 0.330734 0.507324
330 2 0.25374 0.270715 0.548401
81 1 0.26274 0.461044 0.629772
178 1 0.344914 0.35071 0.571622
123 1 0.497522 0.319753 0.630939
190 1 0.418121 0.465193 0.533941
70 1 0.375442 0.481854 0.725088
118 1 0.382828 0.283398 0.726495
9 1 0.640814 0.313597 0.730266
277 1 0.640948 0.374384 0.580813
280 1 0.513471 0.451036 0.701525
292 2 0.634315 0.427929 0.728378
126 1 0.776917 0.27113 0.744337
177 1 0.981019 0.351065 0.561995
287 1 0.799157 0.25353 0.593551
128 1 0.822429 0.391117 0.581789
62 1 0.895774 0.377084 0.714098
316 2 0.920491 0.463118 0.633956
19 1 0.17373 0.54479 0.714718
264 1 0.0086935 0.548346 0.582644
3 1 0.132159 0.745679 0.509143
243 1 0.196473 0.594272 0.574637
171 1 0.100585 0.649728 0.655413
67 1 0.00189145 0.517935 0.725032
254 1 0.233805 0.701665 0.67214
105 1 0.40437 0.600352 0.591925
179 1 0.373383 0.722782 0.706044
293 2 0.303121 0.576973 0.673938
270 1 0.477485 0.713068 0.550716
39 1 0.556498 0.513835 0.579861
175 1 0.72143 0.623278 0.568608
325 2 0.581569 0.560468 0.713709
169 1 0.571322 0.656257 0.633539
37 1 0.717297 0.500027 0.64688
75 1 0.691478 0.63084 0.716528
211 1 0.957271 0.648764 0.690288
315 2 0.822832 0.666736 0.635247
74 1 0.860435 0.552565 0.561521
44 1 0.841926 0.556369 0.700942
207 1 0.991513 0.680732 0.527007
50 1 0.142239 0.91175 0.524879
65 1 0.227853 0.853703 0.626991
286 1 0.0643987 0.893505 0.709263
108 1 0.32275 0.759974 0.558219
127 1 0.337022 0.94944 0.545128
267 1 0.440121 0.855572 0.617607
6 1 0.33029 0.8714 0.732557
172 1 0.714084 0.767501 0.640643
343 2 0.544081 0.766948 0.716856
357 2 0.523566 0.960358 0.567944
48 1 0.584138 0.82216 0.60745
106 1 0.540664 0.928241 0.712392
135 1 0.633353 0.930506 0.515219
251 1 0.722982 0.91807 0.668535
28 1 0.837798 0.770731 0.578631
269 1 0.974528 0.961883 0.58338
61 1 0.998987 0.795307 0.62489
338 2 0.919866 0.85564 0.569418
354 2 0.828552 0.816945 0.696515
78 1 0.865717 0.968763 0.732292
300 2 0.0469594 0.162991 0.769091
285 1 0.167129 0.0934593 0.774189
228 1 0.166055 0.232344 0.797028
202 1 0.197442 0.185319 0.93549
244 1 0.148942 0.0329624 0.905844
142 1 0.0354377 0.135381 0.897346
225 1 0.0314162 0.0125161 0.81086
302 2 0.279557 0.139739 0.767172
151 1 0.413622 0.0682375 0.971263
68 1 0.293466 0.0801468 0.892184
204 1 0.316508 0.224077 0.849004
31 1 0.40201 0.0917835 0.797059
20 1 0.379341 0.220284 0.985218
348 2 0.44755 0.236229 0.855209
334 2 0.669974 0.179887 0.933025
322 2 0.545215 0.0551883 0.752365
183 1 0.532473 0.14426 0.911893
346 2 0.582793 0.041893 0.891297
258 1 0.716435 0.030725 0.952923
206 1 0.657683 0.154527 0.807716
100 1 0.899759 0.124389 0.970802
278 1 0.925695 0.111869 0.766292
43 1 0.801075 0.153307 0.861556
173 1 0.844975 0.017651 0.875016
55 1 0.0742679 0.364187 0.777945
112 1 0.243499 0.428852 0.94822
215 1 0.0938954 0.307545 0.919687
279 1 0.249814 0.418805 0.786351
324 2 0.245687 0.306102 0.908013
181 1 0.0674777 0.455971 0.916561
84 1 0.373193 0.346859 0.889811
311 2 0.448629 0.392866 0.785925
150 1 0.424205 0.498228 0.859991
13 1 0.516608 0.293786 0.982798
312 2 0.593877 0.250077 0.851313
271 1 0.7115 0.303679 0.870051
82 1 0.557715 0.379559 0.856921
29 1 0.659837 0.466972 0.924022
200 1 0.980031 0.252501 0.837218
255 1 0.968786 0.351604 0.98889
98 1 0.863115 0.266732 0.945838
284 1 0.770518 0.415692 0.768711
303 2 0.965894 0.375083 0.878075
154 1 0.833823 0.409264 0.925183
79 1 0.194051 0.541937 0.876064
91 1 6.58449e-05 0.743395 0.880899
248 1 0.0415131 0.60761 0.943341
57 1 0.0697234 0.629907 0.799267
17 1 0.190139 0.689958 0.914536
290 2 0.174119 0.665606 0.764373
125 1 0.477805 0.622324 0.754938
54 1 0.318469 0.606542 0.800267
205 1 0.300583 0.570644 0.962962
201 1 0.432897 0.651067 0.919906
174 1 0.506226 0.517044 0.987553
341 2 0.689211 0.523825 0.787688
353 2 0.58697 0.662441 0.810042
41 1 0.598006 0.634374 0.933357
47 1 0.563957 0.524355 0.82912
139 1 0.728525 0.706754 0.863879
121 1 0.774027 0.649754 0.993655
11 1 0.825572 0.714174 0.756013
199 1 0.914627 0.502436 0.840015
349 2 0.939493 0.62617 0.798834
319 2 0.960306 0.502001 0.952226
184 1 0.898623 0.631974 0.920466
210 1 0.786699 0.557185 0.858212
294 2 0.0468025 0.750626 0.753806
257 1 0.23424 0.819624 0.961357
187 1 0.211046 0.945575 0.780977
329 2 0.247221 0.847853 0.845314
249 1 0.125795 0.863939 0.875694
159 1 0.161388 0.7819 0.759008
93 1 0.260761 0.967323 0.994614
323 2 0.414999 0.956314 0.764644
4 1 0.316849 0.753395 0.847337
21 1 0.40117 0.82644 0.952489
182 1 0.350472 0.926801 0.880626
155 1 0.458099 0.827607 0.802051
96 1 0.665177 0.960598 0.824156
99 1 0.655238 0.809544 0.777497
129 1 0.505552 0.951077 0.873762
66 1 0.553797 0.775233 0.905375
88 1 0.696857 0.869629 0.945619
281 1 0.982471 0.998543 0.954499
89 1 0.949253 0.853887 0.790111
131 1 0.859588 0.776836 0.922286
8 1 0.80358 0.87876 0.831981
ITEM: TIMESTEP
10000
ITEM: NUMBER OF ATOMS
360
ITEM: BOX BOUNDS pp pp pp
0.0000000000000000e+00 6.6943295008216896e+00
0.0000000000000000e+00 6.6943295008216896e+00
0.0000000000000000e+00 6.6943295008216896e+00
ITEM: ATOMS id type xs ys zs
239 1 0.141274 0.0870836 0.115639
230 1 0.169576 0.217336 0.0100049
227 1 0.17688 0.141845 0.257591
220 1 -0.0244601 0.0640151 0.0809471
23 1 0.042724 0.223303 0.0691678
234 1 0.976316 0.954857 0.185552
130 1 0.0289245 0.129763 0.218432
24 1 0.264305 0.166496 0.12603
72 1 0.449898 0.230399 0.10743
119 1 0.402995 0.0824761 0.120585
20 1 0.265843 0.00510771 0.194253
203 1 0.758955 0.244107 0.146677
196 1 0.551331 0.103265 0.133677
188 1 0.571967 0.112496 0.990424
64 1 0.62478 0.254304 0.0387645
16 1 0.661086 0.956557 0.139065
304 2 0.545865 0.973398 0.152553
283 1 0.696843 0.109413 0.088088
262 1 0.842518 0.0919903 0.0166251
352 2 0.783108 0.204181 0.0202021
117 1 0.886257 0.179524 0.1259
335 2 0.649636 0.148618 0.220062
208 1 0.153607 0.265282 0.169519
356 2 0.218322 0.365173 0.12078
5 1 0.24848 0.438517 0.238079
240 1 0.106722 0.435595 0.170885
63 1 0.0146809 0.304518 0.225488
94 1 0.300291 0.281491 0.213559
297 2 0.361866 0.40208 0.284994
45 1 0.446915 0.309266 0.25448
205 1 0.386778 0.402279 0.154739
298 2 0.516869 0.329746 0.142542
259 1 0.794087 0.347835 0.030043
38 1 0.579171 0.247021 0.190008
221 1 0.654643 0.40827 0.0168641
152 1 0.636937 0.376777 0.15941
333 2 0.887723 0.304422 0.194696
317 2 0.0504931 0.339305 0.113545
140 1 0.934522 0.323251 0.0807698
146 1 0.791973 0.401871 0.166557
120 1 0.941582 0.446332 0.189262
92 1 0.0259578 0.452601 0.0414184
181 1 0.206069 0.496037 0.0833362
266 1 0.0930064 0.593909 0.101733
237 1 0.147219 0.568742 0.229659
326 2 0.0146469 0.543713 0.220319
309 2 0.0427016 0.71889 0.115038
351 2 0.202676 0.629648 0.140724
90 1 0.303328 0.570278 0.200988
238 1 0.435621 0.640571 0.144405
197 1 0.338671 0.732075 0.0509056
136 1 0.279361 0.720997 0.186232
233 1 0.326134 0.567899 0.0313125
214 1 0.525855 0.493406 0.108185
110 1 0.710111 0.518673 0.0920692
153 1 0.598278 0.554746 0.250592
40 1 0.620629 0.641655 0.0846118
252 1 0.718753 0.711907 0.185479
320 2 0.732365 0.563362 0.230127
236 1 0.945956 0.629366 0.0666427
115 1 0.836511 0.61853 0.172265
359 2 0.864352 0.747561 0.165146
121 1 0.79825 0.624359 0.0233267
95 1 0.974269 0.709454 0.23158
256 1 0.926012 0.786919 0.0663026
18 1 0.873174 0.479003 0.0623754
291 2 0.103441 0.954203 0.129884
164 1 0.160213 0.75646 0.0915574
36 1 0.0272381 0.917079 0.0283504
282 1 0.20242 0.869472 0.189611
192 1 0.132667 0.723466 0.237959
329 2 0.317954 0.844097 0.234606
73 1 0.0582774 0.833891 0.164965
244 1 0.184619 0.920706 0.0514794
122 1 0.422884 0.926935 0.188592
305 2 0.440936 0.88615 0.0619246
151 1 0.282617 0.0327006 0.0391423
257 1 0.316299 0.88462 0.0927266
247 1 0.568285 0.705288 0.243152
107 1 0.504679 0.764366 0.0823293
109 1 0.569962 0.952823 0.0366882
193 1 0.723144 0.858583 0.235526
27 1 0.572129 0.852256 0.199293
42 1 0.682914 0.0152172 0.952932
99 1 0.654474 0.794051 0.0556837
334 2 0.72172 0.907479 0.0302687
184 1 0.788398 0.836909 0.10912
347 2 0.903047 0.926731 0.0670532
141 1 0.8124 0.983624 0.126291
59 1 0.824725 0.955401 0.958638
231 1 0.10086 0.00160604 0.247755
328 2 0.983928 0.0621222 0.315614
165 1 0.0679453 0.145383 0.367973
104 1 0.222679 0.190652 0.398032
30 1 0.0840012 0.00582609 0.403454
289 2 0.167095 0.0763898 0.460722
93 1 0.335543 0.148972 0.277224
86 1 0.229674 0.0396482 0.362399
276 1 0.385111 0.0476067 0.372045
212 1 0.408588 0.221614 0.389709
318 2 0.300835 0.987319 0.454822
163 1 0.304614 0.103207 0.523839
265 1 0.488156 0.155232 0.265917
223 1 0.55498 0.0145994 0.279838
69 1 0.714114 0.0332789 0.256672
161 1 0.627347 0.139906 0.335914
226 1 0.534649 0.160661 0.465946
307 2 0.649903 0.0475605 0.428127
241 1 0.761699 0.0886683 0.396076
219 1 0.90911 0.0622299 0.423805
176 1 0.913575 0.194814 0.34584
114 1 0.779723 0.198871 0.292306
261 1 0.872604 0.0560554 0.27249
138 1 0.851736 0.172637 0.488093
301 2 0.833081 0.972984 0.453045
336 2 0.208772 0.336741 0.444767
242 1 0.137718 0.322881 0.338611
58 1 0.308475 0.264512 0.517475
268 1 0.048358 0.46641 0.319872
209 1 0.0921822 0.386543 0.488182
342 2 0.113647 0.252285 0.44636
25 1 0.456636 0.494267 0.252156
80 1 0.29509 0.326113 0.358397
186 1 0.441449 0.391187 0.378066
253 1 0.294872 0.434357 0.467633
272 1 0.704671 0.230272 0.43441
185 1 0.690701 0.30769 0.302745
144 1 0.550303 0.278348 0.367532
124 1 0.572637 0.40743 0.458152
137 1 0.720929 0.401285 0.439285
308 2 0.602299 0.278254 0.480418
87 1 0.572914 0.411918 0.298828
123 1 0.452049 0.309467 0.509802
194 1 0.987368 0.34728 0.385208
116 1 0.848191 0.32077 0.45846
217 1 0.836289 0.350059 0.308016
340 2 0.922688 0.444637 0.332077
74 1 0.863627 0.47262 0.437787
166 1 0.176539 0.478081 0.388809
34 1 0.0467915 0.62597 0.343208
3 1 0.124007 0.612662 0.47846
243 1 0.00740862 0.52192 0.450142
273 1 0.220203 0.638576 0.363572
310 2 0.125263 0.746454 0.373086
321 2 0.189725 0.521543 0.531243
46 1 0.339766 0.522926 0.352339
1 1 0.322488 0.597382 0.490486
26 1 0.348417 0.718458 0.422796
132 1 0.39634 0.648866 0.29853
274 1 0.439815 0.491796 0.479871
245 1 0.513142 0.58275 0.381255
113 1 0.684607 0.66442 0.33097
97 1 0.666583 0.535758 0.41151
103 1 0.719903 0.463805 0.296622
344 2 0.807782 0.619682 0.359559
2 1 0.824357 0.736425 0.308742
160 1 0.92061 0.577452 0.291492
147 1 0.912691 0.641935 0.428249
175 1 0.766266 0.699873 0.471083
198 1 0.234412 0.790205 0.343547
358 2 0.197334 0.925348 0.314108
224 1 0.0878622 0.865598 0.313363
50 1 0.0569241 0.866267 0.467012
235 1 0.198759 0.918901 0.469377
108 1 0.21476 0.759689 0.491871
149 1 0.990516 0.760052 0.371872
162 1 0.490444 0.892022 0.334819
111 1 0.423774 0.78393 0.230995
170 1 0.320055 0.924929 0.332476
85 1 0.393418 0.890622 0.45519
250 1 0.4959 0.738246 0.381623
7 1 0.517198 0.00789224 0.440549
213 1 0.658461 0.939034 0.362587
314 2 0.594139 0.800659 0.332445
60 1 0.565431 0.847289 0.460492
10 1 0.707916 0.806876 0.400384
102 1 0.695955 0.952958 0.500533
207 1 0.880818 0.850663 0.237476
133 1 0.952904 0.934646 0.344771
143 1 0.862512 0.80917 0.43078
158 1 0.807781 0.938666 0.340622
269 1 0.823308 0.883448 0.543944
218 1 0.175614 0.200573 0.547954
53 1 0.0504506 0.0910459 0.529656
285 1 0.0651981 0.174604 0.651077
83 1 0.241712 0.139442 0.703504
263 1 0.18577 0.0525698 0.587606
167 1 1.00476 0.257189 0.512786
313 2 0.41511 0.172836 0.526855
12 1 0.41874 0.0253817 0.57547
260 1 0.388773 0.159523 0.64658
322 2 0.355325 0.0328376 0.862607
145 1 0.343744 0.0273166 0.730527
195 1 0.580162 0.987416 0.583832
168 1 0.523425 0.117116 0.641205
312 2 0.654542 0.171701 0.654507
206 1 0.654643 0.0497063 0.691145
287 1 0.67962 0.114269 0.540165
13 1 0.598446 0.22642 0.76463
299 2 0.930568 0.0817234 0.558307
49 1 0.891973 0.167439 0.638639
278 1 0.97459 0.0187792 0.652866
330 2 0.255269 0.272366 0.628647
56 1 0.212211 0.409671 0.595
177 1 0.978251 0.306748 0.653599
211 1 0.0806262 0.49107 0.595424
316 2 0.175431 0.545038 0.680474
55 1 0.0910142 0.418253 0.736822
156 1 0.310265 0.307272 0.742791
180 1 0.368761 0.393731 0.604972
190 1 0.516339 0.416568 0.604945
178 1 0.41308 0.442729 0.735366
280 1 0.446451 0.293929 0.692001
9 1 0.571259 0.246933 0.601116
39 1 0.6671 0.360511 0.574737
128 1 0.809317 0.406755 0.626869
82 1 0.702554 0.337503 0.723204
300 2 0.866044 0.302766 0.593993
126 1 0.845531 0.313076 0.748144
277 1 0.755819 0.231402 0.590485
264 1 0.953908 0.40387 0.542783
44 1 0.944747 0.455597 0.697574
62 1 0.923322 0.403432 0.849184
284 1 0.80049 0.464208 0.76451
294 2 0.100128 0.746184 0.499043
290 2 0.128136 0.682297 0.734785
254 1 0.203355 0.633942 0.597803
159 1 0.0418602 0.582291 0.719799
179 1 0.25925 0.664703 0.744731
331 2 0.4628 0.660165 0.464774
81 1 0.298197 0.527134 0.633967
105 1 0.405933 0.596777 0.727307
157 1 0.334337 0.712565 0.605196
327 2 0.422442 0.499021 0.632005
270 1 0.460854 0.621974 0.589276
134 1 0.593392 0.707619 0.499204
292 2 0.673001 0.497183 0.530038
51 1 0.561901 0.545771 0.535349
169 1 0.533057 0.525901 0.701944
47 1 0.675659 0.500839 0.653686
341 2 0.682261 0.63374 0.522273
172 1 0.603084 0.679621 0.651263
354 2 0.80894 0.688014 0.728601
37 1 0.785602 0.550184 0.528268
315 2 0.805481 0.550831 0.665945
28 1 0.934899 0.556451 0.577025
11 1 0.77548 0.669028 0.620565
338 2 0.0101932 0.642559 0.516428
33 1 0.925509 0.684475 0.655406
65 1 0.0658381 0.727999 0.633527
350 2 0.105424 0.0388857 0.688312
127 1 0.193487 0.96085 0.72565
246 1 0.0889266 0.907265 0.605229
6 1 0.0812905 0.841278 0.759824
106 1 0.377947 0.748238 0.744716
267 1 0.200396 0.792407 0.665336
293 2 0.331221 0.813006 0.527509
148 1 0.267301 0.922716 0.60389
48 1 0.425688 0.888773 0.648063
339 2 0.300098 0.86178 0.706383
22 1 0.449101 0.76422 0.526113
52 1 0.505103 -0.00681241 0.736231
306 2 0.745181 0.984375 0.637038
357 2 0.490815 0.897156 0.543774
222 1 0.691997 0.807585 0.568468
135 1 0.551467 0.811622 0.614497
171 1 0.96387 0.75551 0.529171
189 1 0.812395 0.0443642 0.548635
77 1 0.969309 0.95633 0.517881
78 1 0.819126 0.810307 0.672592
345 2 0.835659 0.749988 0.559498
61 1 0.958421 0.840937 0.649446
142 1 0.0426513 0.190246 0.910476
68 1 0.113632 0.118546 0.792248
202 1 0.131489 0.0430211 0.959518
302 2 0.261458 0.158205 0.945145
324 2 0.220309 0.218844 0.823534
118 1 0.349112 0.17055 0.828538
232 1 0.242264 0.0791929 0.849344
76 1 0.463637 0.0995203 0.866763
31 1 0.41606 0.980835 0.963246
204 1 0.37566 0.167237 0.990732
183 1 0.538706 0.961859 0.882364
271 1 0.493352 0.245291 0.902723
258 1 0.608052 0.0841465 0.823379
43 1 0.74405 0.186826 0.748718
225 1 0.951149 0.11782 0.781062
295 2 0.854429 0.19867 0.846742
71 1 0.701077 0.177372 0.903393
100 1 0.975085 0.267217 0.805604
229 1 0.817969 0.083642 0.864802
173 1 0.825684 0.0536647 0.695479
275 1 0.902284 0.218094 0.961407
355 2 0.163927 0.526439 0.961241
255 1 0.154206 0.373382 0.0135353
228 1 0.158724 0.284847 0.689923
101 1 0.261092 0.445752 0.747826
215 1 0.267346 0.28957 0.912526
303 2 0.172165 0.420502 0.841153
200 1 0.128266 0.300473 0.844149
57 1 0.281242 0.439423 0.956546
112 1 0.328386 0.321834 0.0560584
348 2 0.483636 0.191961 0.77208
279 1 0.388649 0.369211 0.864726
79 1 0.431004 0.463743 0.974188
325 2 0.593539 0.416951 0.716192
84 1 0.513423 0.355068 0.00396562
32 1 0.759805 0.54178 0.90182
70 1 0.53973 0.367878 0.803414
311 2 0.559187 0.432784 0.914949
14 1 0.654056 0.313243 0.889277
29 1 0.653621 0.464186 0.823495
332 2 0.829796 0.434862 0.929894
67 1 0.0560974 0.471787 0.880916
35 1 0.0290308 0.334325 0.950845
98 1 0.802067 0.312419 0.884243
154 1 0.907979 0.531988 0.940078
288 1 0.195378 0.635301 0.00170299
249 1 0.0558134 0.773158 0.981051
19 1 0.159304 0.553297 0.816498
91 1 0.143111 0.702891 0.857804
125 1 0.501233 0.535239 0.852586
150 1 0.453847 0.615527 0.961553
54 1 0.345878 0.526249 0.864827
201 1 0.313281 0.686023 0.906512
155 1 0.540057 0.688547 0.789296
296 2 0.417154 0.683277 0.841389
174 1 0.611959 0.550474 0.965017
343 2 0.460197 0.724603 0.660545
75 1 0.717452 0.612099 0.774708
353 2 0.621969 0.617735 0.86035
191 1 0.713187 0.699857 0.90029
337 2 0.814097 0.645513 0.849692
41 1 0.81607 0.785646 0.973454
66 1 0.559005 0.727895 0.938502
319 2 0.985618 0.585907 0.843588
216 1 0.0467947 0.608314 0.967276
199 1 0.917331 0.683359 0.928185
210 1 0.882233 0.580861 0.767798
139 1 -0.00910446 0.702119 0.796121
17 1 0.22997 0.807218 0.965782
349 2 0.960445 0.822252 0.780331
15 1 0.0446199 0.986811 0.788837
4 1 0.244287 0.811073 0.818812
187 1 0.11218 0.896686 0.909826
323 2 0.169665 0.97491 0.843093
281 1 0.97459 0.0382212 0.918397
182 1 0.282272 0.919523 0.913354
21 1 0.402783 0.82369 0.962403
129 1 0.382219 0.880724 0.810259
346 2 0.522635 0.857354 0.966682
251 1 0.664172 0.895521 0.678292
96 1 0.530682 0.843051 0.785212
88 1 0.639371 0.848947 0.89126
8 1 0.691375 0.756098 0.774356
360 2 0.87391 0.948728 0.628344
89 1 0.84492 0.77242 0.821507
248 1 0.952986 0.859654 0.910848
286 1 0.905514 0.938585 0.777999
131 1 0.757254 0.909144 0.819654
ITEM: TIMESTEP
20000
ITEM: NUMBER OF ATOMS
360
ITEM: BOX BOUNDS pp pp pp
0.0000000000000000e+00 6.6943295008216896e+00
0.0000000000000000e+00 6.6943295008216896e+00
0.0000000000000000e+00 6.6943295008216896e+00
ITEM: ATOMS id type xs ys zs
231 1 0.109887 0.0642178 0.199311
230 1 0.0797829 0.070613 0.0360775
93 1 0.157357 0.236175 0.029307
342 2 0.0860865 0.187574 0.129917
244 1 0.223914 0.125064 0.114793
255 1 0.0287897 0.212588 0.985392
204 1 0.395849 0.224914 0.136448
122 1 0.344838 0.00526291 0.0488668
151 1 0.378862 0.167935 0.995451
298 2 0.273479 0.234528 0.129753
304 2 0.350109 0.09982 0.127481
109 1 0.49286 0.0970725 0.089239
196 1 0.64029 0.120578 0.120519
283 1 0.744419 0.00534314 0.201546
213 1 0.557981 0.0171147 0.223251
320 2 0.693958 0.216941 0.19236
84 1 0.530859 0.217228 0.00307493
334 2 0.735655 0.0486928 0.0374544
38 1 0.562725 0.233457 0.187233
305 2 0.584953 0.0892177 0.985391
194 1 0.0060774 0.182558 0.234906
203 1 0.801889 0.145095 0.121615
130 1 0.957727 0.147063 0.0982724
220 1 0.841358 0.989041 0.0854099
352 2 0.866518 0.0631411 0.218137
208 1 0.046946 0.324302 0.117724
356 2 0.144253 0.377002 0.211288
240 1 0.110882 0.482503 0.131249
67 1 0.0887241 0.380088 0.964149
5 1 0.264387 0.495842 0.244971
227 1 0.160975 0.247713 0.216911
181 1 0.215745 0.361888 0.113431
24 1 0.29448 0.285918 0.00275244
205 1 0.416889 0.483607 0.216682
152 1 0.483785 0.34752 0.115722
311 2 0.422972 0.283752 0.0222602
54 1 0.354812 0.450464 0.0777042
94 1 0.316001 0.342482 0.207518
64 1 0.660845 0.254534 0.0599956
25 1 0.560122 0.534531 0.261358
221 1 0.659772 0.451131 0.192062
29 1 0.615289 0.388214 0.0579523
63 1 0.962415 0.479662 0.195824
23 1 0.896674 0.279522 0.136332
146 1 0.752254 0.330612 0.157318
303 2 0.835515 0.374717 0.073677
103 1 0.814169 0.483325 0.151212
333 2 0.886791 0.366255 0.217651
355 2 0.0166049 0.558812 0.0804778
266 1 0.0843056 0.675343 0.0801588
237 1 0.0241694 0.611656 0.218546
309 2 0.198481 0.700221 0.074556
288 1 0.177271 0.627816 0.20131
351 2 0.343422 0.582588 0.185841
310 2 0.181507 0.566335 0.314543
136 1 0.318778 0.705563 0.137184
238 1 0.413112 0.607216 0.0808308
233 1 0.296613 0.642558 0.300128
132 1 0.447682 0.646572 0.238847
214 1 0.532494 0.513671 0.113164
110 1 0.701754 0.595922 0.194116
174 1 0.581245 0.663415 0.0925246
184 1 0.692796 0.75022 0.140215
252 1 0.823469 0.682727 0.188202
120 1 0.976909 0.448304 0.0388443
115 1 0.782588 0.61441 0.0655684
95 1 0.931903 0.689857 0.0849138
326 2 0.913122 0.589378 0.163074
239 1 0.982992 0.00428134 0.161863
192 1 0.997991 0.774555 0.193407
164 1 0.208865 0.953135 0.121368
347 2 0.132332 0.870067 0.18519
73 1 0.102304 0.829209 0.0623677
198 1 0.195801 0.770754 0.175153
30 1 0.0328521 0.89968 0.264118
107 1 0.463286 0.770744 0.150277
257 1 0.329146 0.858263 0.13847
66 1 0.46265 0.950222 0.139126
17 1 0.239762 0.831643 0.00306571
16 1 0.613436 0.979688 0.0849106
27 1 0.582361 0.863659 0.209841
99 1 0.578153 0.831143 0.0461713
301 2 0.685404 0.889946 0.150138
256 1 0.961834 0.870666 0.0892209
141 1 0.723115 0.89007 0.0219922
234 1 0.889947 0.928237 0.236843
207 1 0.822349 0.841374 0.125537
236 1 0.832829 0.730923 0.983984
291 2 0.861428 0.865484 0.00526497
165 1 0.144655 0.143088 0.329745
289 2 0.0645011 0.0507045 0.414321
86 1 0.134306 0.992523 0.325503
145 1 0.196967 0.0534053 0.459367
167 1 0.000977983 0.166521 0.409786
330 2 0.165399 0.188592 0.492621
265 1 0.293116 0.188581 0.242633
226 1 0.422291 0.182741 0.442798
119 1 0.328348 0.0954949 0.375602
223 1 0.440791 0.118161 0.263731
20 1 0.246427 0.0410081 0.245505
69 1 0.649269 0.120615 0.279633
161 1 0.551761 0.0813508 0.382425
272 1 0.522225 0.233072 0.356168
176 1 0.975873 0.0449855 0.317686
117 1 0.793959 0.220502 0.290941
261 1 0.802869 0.060016 0.329857
219 1 0.846908 0.146469 0.44943
114 1 0.68642 0.163385 0.423911
300 2 0.914427 0.158756 0.320518
242 1 0.218556 0.335432 0.323929
243 1 0.168536 0.447504 0.419027
209 1 0.106468 0.272521 0.388998
268 1 0.0342167 0.343812 0.269503
340 2 0.0645873 0.399129 0.378137
160 1 0.0919795 0.48225 0.285505
335 2 0.444052 0.301664 0.239602
166 1 0.389523 0.418577 0.425602
276 1 0.254446 0.214873 0.416587
104 1 0.36474 0.283928 0.342945
90 1 0.41389 0.553077 0.355763
297 2 0.325562 0.422954 0.326983
313 2 0.432108 0.416236 0.55238
45 1 0.513733 0.396451 0.300452
80 1 0.53036 0.487376 0.436884
144 1 0.515463 0.326244 0.478576
186 1 0.664287 0.471695 0.366154
185 1 0.657594 0.2954 0.296756
307 2 0.614903 0.363017 0.400059
116 1 0.908663 0.289377 0.341252
87 1 0.783728 0.425533 0.291823
39 1 0.755509 0.346692 0.430509
137 1 0.800825 0.495919 0.437244
217 1 0.941451 0.446145 0.361882
299 2 0.99242 0.28808 0.442944
47 1 0.890975 0.366238 0.491237
273 1 0.100799 0.718446 0.309135
34 1 0.288955 0.54257 0.423686
50 1 0.164826 0.623884 0.43297
149 1 0.0192147 0.599678 0.366522
338 2 0.0741658 0.517627 0.467762
111 1 0.353004 0.777379 0.260617
46 1 0.38689 0.711131 0.413047
247 1 0.49225 0.771463 0.313873
40 1 0.591384 0.68603 0.241593
327 2 0.613805 0.611439 0.347261
245 1 0.524769 0.649842 0.427423
153 1 0.745252 0.618824 0.331613
124 1 0.666843 0.596732 0.460577
113 1 0.646355 0.727145 0.377322
74 1 0.942104 0.525473 0.507457
344 2 0.858409 0.609873 0.407891
97 1 0.881503 0.56577 0.285851
175 1 0.803498 0.733341 0.408017
2 1 0.920634 0.699655 0.309318
147 1 0.943522 0.692443 0.463724
37 1 0.830313 0.630339 0.534278
282 1 0.23088 0.889646 0.264966
263 1 0.211291 0.893647 0.439802
358 2 0.125108 0.834665 0.354125
77 1 0.0580631 0.929239 0.466429
246 1 0.127781 0.76529 0.461018
162 1 0.378415 0.983374 0.264964
329 2 0.440652 0.863288 0.244389
321 2 0.399437 0.827542 0.463814
26 1 0.251221 0.769058 0.372198
318 2 0.264322 0.98525 0.351504
170 1 0.344384 0.88547 0.36886
357 2 0.432127 0.0543762 0.392996
85 1 0.332751 0.988631 0.489211
193 1 0.748086 0.810309 0.278665
158 1 0.665426 0.975943 0.347271
241 1 0.748166 0.0152424 0.480727
250 1 0.511193 0.790163 0.485299