ITEM: TIMESTEP
0
ITEM: NUMBER OF ATOMS
360
ITEM: BOX BOUNDS pp pp pp
0.0000000000000000e+00 6.6943295008216896e+00
0.0000000000000000e+00 6.6943295008216896e+00
0.0000000000000000e+00 6.6943295008216896e+00
ITEM: ATOMS id type xs ys zs
20 1 0.0970785 0.0899896 0.189305
309 2 0.152441 0.233979 0.190852
282 1 0.0943347 0.194904 0.0755503
17 1 0.210507 0.0976212 0.0816338
107 1 0.247057 0.154766 0.213614
119 1 0.263999 0.231912 0.0476709
213 1 0.359114 0.123723 0.0943652
204 1 0.491561 0.0539759 0.131677
88 1 0.496684 0.208409 0.15783
193 1 0.337458 0.024957 0.206443
64 1 0.635339 0.0838512 0.152779
303 2 0.562013 0.00526331 0.233505
42 1 0.69829 0.179617 0.0494582
102 1 0.555482 0.138255 0.00437817
114 1 0.728775 0.225162 0.232494
310 2 0.616381 0.191526 0.212234
112 1 0.66328 0.00808062 0.0292973
357 2 0.98241 0.0595428 0.118958
23 1 0.813262 0.113796 0.144487
164 1 0.903407 0.133255 0.0411814
227 1 0.972301 0.216463 0.169305
334 2 0.808995 0.0247034 0.0671093
319 2 0.0531151 0.30048 0.130157
208 1 0.155413 0.346948 0.0841171
181 1 0.0335447 0.445699 0.00475941
160 1 0.173449 0.420051 0.229265
145 1 0.073816 0.314311 0.249725
351 2 0.270395 0.428365 0.131258
244 1 0.265205 0.301225 0.180003
94 1 0.37536 0.321304 0.0848287
298 2 0.441271 0.460812 0.0518104
104 1 0.381934 0.39526 0.207045
57 1 0.315239 0.467602 0.0156035
79 1 0.509077 0.382328 0.133245
196 1 0.630414 0.300881 0.124439
297 2 0.643257 0.426665 0.0919081
25 1 0.548273 0.486286 0.224776
131 1 0.74631 0.39886 0.166226
304 2 0.545334 0.28092 0.0224552
115 1 0.724635 0.375775 0.0178369
130 1 0.994483 0.414488 0.164357
215 1 0.948356 0.321822 0.0417687
284 1 0.825679 0.256473 0.0945964
67 1 0.878975 0.453689 0.0330322
63 1 0.870848 0.325051 0.216048
353 2 0.0837822 0.509624 0.1863
54 1 0.15528 0.525792 0.0912201
191 1 0.0815762 0.690594 0.10568
136 1 0.153046 0.632253 0.241475
291 2 0.184309 0.737969 0.0218965
344 2 0.345588 0.589268 0.0550341
101 1 0.254856 0.653588 0.111538
150 1 0.411806 0.53222 0.152648
279 1 0.392696 0.704091 0.0237342
257 1 0.39394 0.733576 0.159916
266 1 0.266199 0.528102 0.208378
347 2 0.487416 0.631349 0.0712466
132 1 0.496359 0.634754 0.237755
84 1 0.693879 0.533031 0.158314
233 1 0.560232 0.530681 0.078992
238 1 0.599042 0.66986 0.131188
320 2 0.634319 0.636836 0.245607
110 1 0.69242 0.535573 0.00925029
292 2 0.75333 0.718101 0.105759
5 1 0.855354 0.5121 0.185479
142 1 0.998258 0.563231 0.106667
237 1 0.807298 0.616416 0.0788411
47 1 0.91386 0.66935 0.177502
113 1 0.760963 0.623562 0.247933
236 1 0.957141 0.686236 0.0276419
73 1 0.249901 0.758191 0.228522
317 2 0.187234 0.978384 0.0425683
134 1 0.147071 0.828922 0.139687
202 1 0.0604829 0.958565 0.088834
28 1 0.0660309 0.816305 0.013636
209 1 0.192332 0.965912 0.169326
239 1 0.0641228 0.924124 0.234873
31 1 0.317547 0.964054 0.0589106
179 1 0.287045 0.802535 0.082736
329 2 0.286386 0.890255 0.172494
99 1 0.433376 0.921893 0.160228
200 1 0.740488 0.959361 0.155978
60 1 0.512183 0.790882 0.0748639
40 1 0.557269 0.779881 0.233481
312 2 0.532026 0.939245 0.0440484
203 1 0.594959 0.913451 0.148235
121 1 0.690383 0.82236 0.0641563
174 1 0.723449 0.788953 0.227112
30 1 0.854604 0.80537 0.132606
343 2 0.827072 0.896733 0.239724
192 1 0.997684 0.809515 0.159972
359 2 0.947446 0.869759 0.0730669
261 1 0.892065 0.975568 0.156851
352 2 0.040129 0.178957 0.263454
77 1 0.136621 0.195168 0.320685
165 1 0.152152 0.096928 0.450772
330 2 0.029562 0.176528 0.40204
91 1 0.129067 0.240908 0.468326
78 1 0.206272 0.0365238 0.303612
231 1 0.0492872 0.0537046 0.345636
223 1 0.386364 0.241109 0.2743
226 1 0.350525 0.121152 0.3508
260 1 0.37569 0.162739 0.493959
341 2 0.480645 0.124178 0.400727
308 2 0.25133 0.182653 0.449954
138 1 0.295183 0.037024 0.442376
90 1 0.509116 0.128997 0.277664
176 1 0.66179 0.0999851 0.295537
146 1 0.565894 0.0272672 0.387276
71 1 0.602782 0.177689 0.455538
27 1 0.735892 0.032874 0.421205
167 1 0.734672 0.191607 0.382987
9 1 0.59679 0.245296 0.325588
194 1 0.935105 0.0964041 0.253664
356 2 0.837416 0.17854 0.293477
86 1 0.941545 0.23697 0.329587
268 1 0.889286 0.111023 0.39734
37 1 0.989033 0.0409747 0.478836
219 1 0.967193 0.238344 0.498045
289 2 0.820995 0.229498 0.481464
234 1 0.790843 0.0239139 0.278738
128 1 0.148737 0.371914 0.384631
335 2 0.0406843 0.431761 0.292744
288 1 0.0886202 0.48854 0.499413
272 1 0.467976 0.255491 0.396461
265 1 0.314835 0.289922 0.425621
198 1 0.282942 0.412275 0.329451
276 1 0.400929 0.430216 0.443013
45 1 0.479978 0.372252 0.307605
254 1 0.254465 0.497168 0.46934
38 1 0.650002 0.388596 0.286048
46 1 0.540472 0.476311 0.420725
166 1 0.70254 0.433396 0.437824
39 1 0.725901 0.304596 0.494877
70 1 0.57871 0.345617 0.439593
242 1 0.989867 0.396252 0.437163
185 1 0.821782 0.346805 0.364972
277 1 0.844654 0.48214 0.441685
87 1 0.917335 0.438405 0.311505
205 1 0.777675 0.474537 0.311098
217 1 0.013108 0.569969 0.25913
246 1 0.141323 0.531164 0.353331
235 1 0.234763 0.648402 0.357835
221 1 0.0669372 0.668677 0.385282
2 1 0.170655 0.634034 0.491757
267 1 0.415222 0.508735 0.304808
358 2 0.293296 0.530469 0.359178
111 1 0.365001 0.661551 0.294608
15 1 0.32318 0.745558 0.445611
247 1 0.484904 0.735609 0.365478
48 1 0.400056 0.614635 0.42767
124 1 0.645382 0.543127 0.327188
245 1 0.549279 0.620337 0.425519
95 1 0.682767 0.569193 0.486836
158 1 0.671773 0.69113 0.357969
306 2 0.9989 0.701451 0.276294
339 2 0.777652 0.604972 0.390863
175 1 0.772767 0.706829 0.493186
186 1 0.876218 0.598168 0.324451
13 1 0.991281 0.552293 0.418327
360 2 0.793159 0.728498 0.342392
147 1 0.921238 0.703642 0.41742
256 1 0.0951224 0.782691 0.278337
263 1 0.211122 0.884343 0.298268
224 1 0.149107 0.949906 0.421144
211 1 0.0174971 0.866885 0.411391
7 1 0.165212 0.781712 0.418331
342 2 0.328554 0.958986 0.320787
170 1 0.370341 0.842565 0.299183
85 1 0.292024 0.892289 0.432529
22 1 0.441545 0.997559 0.462426
321 2 0.407963 0.833746 0.425643
161 1 0.44843 0.990924 0.301275
333 2 0.60972 0.79832 0.344456
300 2 0.644441 0.925917 0.414742
314 2 0.502438 0.889576 0.268623
283 1 0.6419 0.907781 0.282041
241 1 0.522354 0.882726 0.394801
123 1 0.625527 0.75272 0.481481
97 1 0.904909 0.807199 0.29518
133 1 0.914156 0.961119 0.326494
116 1 0.778252 0.846836 0.384788
269 1 0.854476 0.957107 0.48172
328 2 0.905993 0.835037 0.451352
285 1 0.225738 0.117438 0.576257
177 1 0.0713928 0.142786 0.566169
56 1 0.135544 0.0856416 0.695081
332 2 0.0185975 0.116392 0.68368
93 1 0.243405 0.1822 0.736631
34 1 0.310507 0.0446755 0.72527
144 1 0.366542 0.185753 0.650628
280 1 0.384494 0.0462861 0.60072
152 1 0.488716 0.104217 0.691491
118 1 0.502494 0.121712 0.54441
305 2 0.691186 0.00917562 0.528529
195 1 0.638854 0.0727683 0.628377
163 1 0.734339 0.133506 0.528302
44 1 0.642844 0.196019 0.749211
222 1 0.79095 0.0143938 0.613205
59 1 0.884663 0.121565 0.558348
325 2 0.881059 0.240361 0.607426
173 1 0.992017 0.235849 0.679761
229 1 0.780161 0.220402 0.673739
338 2 0.948869 0.017977 0.608919
259 1 0.895395 0.110865 0.712909
218 1 0.141655 0.257478 0.653635
299 2 0.195793 0.396111 0.512362
243 1 0.166209 0.466804 0.615559
126 1 0.000997264 0.483517 0.622309
81 1 0.0551184 0.345837 0.566742
258 1 0.0575655 0.378398 0.728756
83 1 0.437292 0.300469 0.548777
80 1 0.259108 0.278694 0.565122
313 2 0.365873 0.324351 0.646805
26 1 0.327008 0.421138 0.570969
212 1 0.262032 0.352184 0.698531
43 1 0.493172 0.266998 0.691708
169 1 0.467687 0.432658 0.603024
271 1 0.620053 0.443127 0.586923
253 1 0.587883 0.259225 0.583988
251 1 0.606346 0.360748 0.71954
355 2 0.743833 0.481958 0.558496
74 1 0.706847 0.474299 0.720033
82 1 0.747784 0.366724 0.629229
21 1 0.54604 0.497914 0.721283
35 1 0.871493 0.351467 0.529693
264 1 0.89312 0.333576 0.685476
316 2 0.939057 0.493672 0.523364
137 1 0.846144 0.477509 0.622772
294 2 0.0954802 0.51672 0.715428
171 1 0.136249 0.7159 0.664877
6 1 0.016906 0.608971 0.743532
50 1 0.0514742 0.618937 0.581233
65 1 0.208049 0.59934 0.739642
270 1 0.305221 0.618646 0.562843
336 2 0.406808 0.526586 0.55257
178 1 0.313853 0.505828 0.69745
157 1 0.436665 0.60265 0.666611
250 1 0.47029 0.722066 0.524205
129 1 0.325641 0.739425 0.671489
274 1 0.538482 0.5861 0.563109
273 1 0.583539 0.657292 0.706029
149 1 0.71373 0.607696 0.655698
210 1 0.871648 0.605312 0.521602
51 1 0.875134 0.629264 0.679899
33 1 0.0495495 0.750606 0.528389
49 1 0.102202 0.990789 0.570876
348 2 0.108238 0.87405 0.513147
53 1 0.0820902 0.854286 0.642741
168 1 0.209357 0.788937 0.567925
52 1 0.238263 0.961696 0.574379
206 1 0.00313144 0.986631 0.730303
307 2 0.435232 0.795914 0.613223
318 2 0.332179 0.923676 0.666568
232 1 0.348358 0.852257 0.556976
135 1 0.462613 0.934302 0.636031
105 1 0.462849 0.750701 0.73196
117 1 0.577735 0.961538 0.530421
293 2 0.51531 0.850911 0.519006
189 1 0.681451 0.922588 0.683876
10 1 0.714549 0.883208 0.525076
287 1 0.571092 0.812629 0.636103
190 1 0.744768 0.752876 0.631162
350 2 0.662226 0.786795 0.728811
278 1 0.972004 0.899796 0.550346
286 1 0.986946 0.754397 0.696887
143 1 0.896 0.760596 0.573251
4 1 0.868268 0.894907 0.657196
349 2 0.85658 0.756845 0.701616
275 1 0.0515064 0.0812214 0.980918
337 2 0.212036 0.067712 0.81185
225 1 0.170309 0.177252 0.912213
230 1 0.207027 0.0276199 0.922724
182 1 0.0644003 0.169695 0.799153
16 1 0.0940318 0.0177277 0.838497
322 2 0.28464 0.126763 0.972654
162 1 0.397231 0.200439 0.967675
68 1 0.399242 0.0502662 0.96691
311 2 0.285922 0.239552 0.894421
207 1 0.317925 0.122869 0.858597
151 1 0.477381 0.145342 0.844155
109 1 0.444557 0.00591204 0.795581
12 1 0.742531 0.0544138 0.760796
262 1 0.597348 0.0225101 0.784552
8 1 0.654511 0.107984 0.898842
66 1 0.536323 0.00393324 0.930204
92 1 0.988008 0.21816 0.936775
345 2 0.87208 0.184225 0.924128
36 1 0.93967 0.0936913 0.856192
141 1 0.799479 0.0843494 0.947827
29 1 0.778904 0.197532 0.824617
98 1 0.920409 0.246169 0.798796
340 2 0.0322899 0.305282 0.827612
159 1 0.193487 0.447379 0.803538
255 1 0.105449 0.331265 0.93356
55 1 0.0458234 0.493973 0.858367
24 1 0.179075 0.47362 0.948136
156 1 0.177672 0.29433 0.811584
3 1 0.416845 0.392835 0.754541
180 1 0.375547 0.250496 0.812203
122 1 0.251525 0.343754 0.937567
69 1 0.411525 0.365754 0.908411
295 2 0.292124 0.368488 0.817077
315 2 0.697704 0.299774 0.795343
14 1 0.549048 0.278532 0.837977
100 1 0.65825 0.261172 0.923397
72 1 0.560435 0.39043 0.99134
214 1 0.663059 0.413832 0.872075
108 1 0.526409 0.471708 0.86479
154 1 0.797978 0.363399 0.796019
120 1 0.825774 0.296927 0.943171
228 1 0.933439 0.378535 0.885401
140 1 0.926267 0.476441 0.760909
103 1 0.803357 0.464805 0.905079
324 2 0.153611 0.592169 0.856591
252 1 0.162852 0.728612 0.904569
18 1 0.0914906 0.613889 0.978739
216 1 0.0200631 0.715579 0.872413
323 2 0.11293 0.712509 0.791993
201 1 0.240827 0.612472 0.953005
248 1 0.33589 0.647279 0.785743
331 2 0.434703 0.515319 0.761569
58 1 0.333924 0.511545 0.85418
62 1 0.443188 0.561526 0.974902
296 2 0.366751 0.640472 0.912227
96 1 0.48988 0.620701 0.815214
188 1 0.308048 0.743511 0.916165
346 2 0.507468 0.70402 0.973777
75 1 0.645191 0.566352 0.839217
125 1 0.633719 0.681666 0.998441
354 2 0.591132 0.58088 0.952002
155 1 0.610073 0.723739 0.859819
172 1 0.736444 0.702261 0.783562
139 1 0.795596 0.570582 0.785472
153 1 0.757575 0.637281 0.922291
240 1 0.914987 0.577293 0.94308
327 2 0.835653 0.71665 0.999771
281 1 0.869657 0.717811 0.836065
199 1 0.197131 0.863391 0.968238
249 1 0.0843629 0.845861 0.843437
148 1 0.234209 0.798263 0.790609
326 2 0.0956541 0.943272 0.95815
187 1 0.192189 0.939857 0.752219
127 1 0.418382 0.875222 0.994466
19 1 0.330789 0.934962 0.880284
302 2 0.472974 0.895849 0.873916
76 1 0.382794 0.860855 0.762649
106 1 0.453197 0.775122 0.878155
197 1 0.570558 0.85358 0.949197
1 1 0.542043 0.872391 0.78181
290 2 0.665063 0.849224 0.841541
183 1 0.71296 0.961519 0.887047
184 1 0.80105 0.908197 0.994256
220 1 0.932544 0.97664 0.989937
61 1 0.940351 0.845624 0.801603
32 1 0.861754 0.967042 0.825334
301 2 0.98125 0.956606 0.876272
11 1 0.778625 0.840848 0.765263
41 1 0.752587 0.797045 0.912806
89 1 0.919311 0.807442 0.958866
ITEM: TIMESTEP
50000
ITEM: NUMBER OF ATOMS
360
ITEM: BOX BOUNDS pp pp pp
0.0000000000000000e+00 6.6943295008216896e+00
0.0000000000000000e+00 6.6943295008216896e+00
0.0000000000000000e+00 6.6943295008216896e+00
ITEM: ATOMS id type xs ys zs
202 1 0.077606 0.111107 0.125423
145 1 0.222252 0.149854 0.0480917
66 1 0.245258 0.069292 0.179128
265 1 0.217412 0.162759 0.30198
209 1 0.166126 1.00018 0.0571959
244 1 1.00219 0.994996 0.0755469
94 1 0.386617 0.0881837 0.165395
119 1 0.471728 0.156183 0.0447882
170 1 0.360387 0.0698883 0.314749
107 1 0.494861 0.195754 0.201218
8 1 0.490018 -0.00281951 0.259607
264 1 0.339769 0.23927 1.00159
88 1 0.546863 0.0204126 0.103155
204 1 0.608277 0.101272 0.217126
251 1 0.656755 0.0898766 0.0116002
223 1 0.709806 0.209425 0.165175
354 2 0.574357 0.207398 0.0939379
327 2 0.651681 0.954881 0.0728904
303 2 0.82201 0.123595 0.152568
112 1 0.78979 0.166075 0.033516
194 1 0.851284 0.0319826 0.0631268
235 1 0.93637 0.133675 0.226414
349 2 0.958828 0.925592 0.171065
256 1 0.963458 0.165568 0.050598
332 2 0.015271 0.208626 0.155416
20 1 0.174374 0.23867 0.168329
304 2 0.106987 0.341363 0.118816
225 1 0.200011 0.444556 0.176067
275 1 0.0354245 0.477089 0.149725
6 1 0.15606 0.527969 0.0590675
228 1 0.224175 0.358575 0.038361
208 1 0.32303 0.214351 0.164599
69 1 0.465918 0.314297 0.0790996
77 1 0.334459 0.379581 0.157604
24 1 0.381352 0.420437 0.0180025
72 1 0.588137 0.3329 0.145928
14 1 0.684971 0.438917 0.0305608
100 1 0.53603 0.448745 0.0304642
309 2 0.57684 0.33315 0.987754
219 1 0.866102 0.241783 0.155711
234 1 0.975289 0.3308 0.104865
342 2 0.923128 0.445751 0.0982518
196 1 0.91137 0.419591 0.221512
215 1 0.817153 0.355559 0.0542999
316 2 0.727988 0.326684 0.143926
221 1 0.13863 0.565154 0.244057
360 2 0.11617 0.674353 0.0930285
89 1 -0.00185008 0.808066 0.148802
109 1 0.0884551 0.711449 0.983903
186 1 0.0221618 0.600814 0.0681077
210 1 0.970734 0.654957 0.2233
230 1 0.174288 0.789098 0.127036
79 1 0.444183 0.498598 0.158
236 1 0.307257 0.528495 0.103847
198 1 0.43207 0.57193 0.989231
60 1 0.405418 0.651568 0.155774
76 1 0.23728 0.655755 0.173421
84 1 0.779077 0.459242 0.167896
54 1 0.518335 0.663683 0.0582656
42 1 0.616021 0.532838 0.120931
38 1 0.665792 0.70209 0.120562
337 2 0.617382 0.711867 0.977302
62 1 0.74616 0.581809 0.0530812
305 2 0.684397 0.747795 0.244571
92 1 0.887871 0.569692 0.126703
192 1 0.819789 0.688859 0.182781
30 1 0.920656 0.705918 0.0547839
292 2 0.868112 0.414684 0.959747
306 2 0.84021 0.671421 0.964142
17 1 0.105534 0.960618 0.196916
343 2 0.0923081 0.89853 0.0767434
330 2 0.21613 0.881498 0.224832
199 1 0.993916 0.83678 0.000596732
213 1 0.26355 0.908501 0.104223
13 1 0.332575 0.78533 0.218449
101 1 0.411277 0.925857 0.138021
179 1 0.491513 0.792472 0.129392
359 2 0.405745 0.691351 0.983516
291 2 0.466071 0.859693 0.227335
314 2 0.509538 0.889878 0.0558031
41 1 0.631175 0.830695 0.0501504
121 1 0.739345 0.839048 0.150777
127 1 0.735855 0.0125462 0.146289
203 1 0.594769 0.89989 0.182702
99 1 0.744778 0.932382 0.986943
269 1 0.867995 0.971659 0.249507
134 1 0.892207 0.80897 0.243702
261 1 0.877273 0.878989 0.0930267
351 2 0.127248 0.0788268 0.238637
22 1 0.0162351 0.187088 0.415356
355 2 0.200743 0.204231 0.515028
231 1 0.0648528 0.204439 0.280138
195 1 0.149583 0.11078 0.428448
317 2 0.280329 0.0567378 0.412853
193 1 0.0111392 0.0255607 0.487053
118 1 0.300855 0.183322 0.424739
356 2 0.423503 0.184061 0.450996
146 1 0.43539 0.0283789 0.432947
114 1 0.518065 0.137601 0.344982
250 1 0.500519 0.128135 0.538017
147 1 0.72513 0.0791616 0.434741
262 1 0.60758 0.194882 0.455401
320 2 0.651736 0.102467 0.332658
71 1 0.586867 0.0130719 0.425859
166 1 0.756028 0.215763 0.38589
334 2 0.831322 0.201902 0.2726
46 1 0.627199 0.240957 0.284927
310 2 0.566704 0.911484 0.307319
133 1 0.895767 0.288156 0.44504
86 1 0.880779 0.120364 0.367011
163 1 0.759801 0.101354 0.261285
268 1 0.857166 0.0288856 0.489147
185 1 0.797495 0.182248 0.526825
78 1 0.0807619 0.362941 0.246931
35 1 0.179087 0.299853 0.408615
87 1 0.163634 0.449691 0.338197
63 1 0.0448732 0.366339 0.395738
288 1 0.257309 0.310858 0.280069
128 1 0.270901 0.416722 0.433777
176 1 0.38129 0.229458 0.303105
313 2 0.34643 0.300773 0.396121
276 1 0.369978 0.434009 0.3221
9 1 0.465166 0.338067 0.249839
50 1 0.496229 0.295007 0.397656
336 2 0.693381 0.434709 0.476217
164 1 0.534297 0.444983 0.379063
70 1 0.654837 0.349992 0.386347
142 1 0.632191 0.442977 0.25081
131 1 0.77051 0.341996 0.269123
174 1 0.928361 0.278133 0.292233
246 1 0.893245 0.428546 0.378889
326 2 0.788583 0.355967 0.405536
205 1 0.753256 0.470403 0.336274
344 2 0.202848 0.576692 0.391678
298 2 0.1077 0.772442 0.391889
132 1 0.176364 0.68903 0.470966
254 1 0.0830666 0.629356 0.366149
160 1 0.0179538 0.523353 0.468912
136 1 0.0980671 0.745908 0.247506
2 1 0.233446 0.678694 0.326036
15 1 0.314383 0.549443 0.257117
25 1 0.461614 0.555487 0.295161
26 1 0.332757 0.695773 0.447726
286 1 0.331199 0.557089 0.412252
150 1 0.480561 0.605772 0.441398
113 1 0.721398 0.580814 0.232094
233 1 0.550963 0.638353 0.204437
123 1 0.610918 0.567971 0.339595
358 2 0.532324 0.668851 0.338225
190 1 0.682934 0.716752 0.368406
81 1 0.732603 0.553077 0.472311
139 1 0.00985993 0.50373 0.30396
333 2 0.751737 0.596002 0.358976
277 1 0.866275 0.553162 0.27937
352 2 0.951599 0.621614 0.346848
242 1 0.877156 0.566974 0.427982
158 1 0.833735 0.701613 0.343886
227 1 0.0299571 0.0449967 0.32953
31 1 0.185404 0.991574 0.321499
341 2 0.0230804 0.886005 0.276633
257 1 0.0745664 0.906111 0.38191
241 1 0.160957 0.963323 0.500244
239 1 0.208729 0.826994 0.344229
238 1 0.418917 0.698376 0.300356
321 2 0.346538 0.792723 0.344207
283 1 0.328092 0.926496 0.263391
111 1 0.300899 0.934457 0.411618
293 2 0.401705 0.807891 0.519429
116 1 0.445572 0.88965 0.35486
5 1 0.487993 0.765655 0.422048
117 1 0.559224 0.781647 0.271277
97 1 0.664462 0.990226 0.297288
143 1 0.623789 0.857723 0.415096
149 1 0.868228 0.799001 0.470778
27 1 0.753696 0.867299 0.286158
266 1 0.993495 0.776877 0.346638
299 2 0.799979 0.00741281 0.345835
138 1 0.758168 0.92291 0.437194
335 2 0.999617 0.834172 0.479196
224 1 0.917066 0.905907 0.377482
226 1 0.1313 0.101336 0.58543
173 1 0.993731 0.177408 0.687939
218 1 0.0691737 0.251794 0.555825
255 1 0.121574 0.116688 0.732104
300 2 0.359827 0.976528 0.518251
151 1 0.281531 0.0772516 0.537819
272 1 0.276059 0.171289 0.689279
80 1 0.41867 0.191759 0.64104
197 1 0.433856 0.0213357 0.63146
290 2 0.489143 0.2536 0.540838
285 1 0.587452 0.230267 0.61535
325 2 0.617345 0.0706653 0.528241
59 1 0.685739 0.122813 0.619084
44 1 0.634976 0.193755 0.760925
259 1 0.590394 0.0085551 0.648685
189 1 0.722613 0.0216651 0.735588
85 1 0.995923 0.0380338 0.63562
165 1 0.944773 0.14912 0.540176
175 1 0.763866 0.235471 0.689967
278 1 0.822961 0.0661446 0.636071
329 2 0.0674593 0.923421 0.569466
91 1 0.130777 0.427926 0.51124
177 1 0.157825 0.25781 0.703823
53 1 0.226516 0.31178 0.570768
212 1 0.130071 0.437059 0.756446
154 1 0.0136168 0.324682 0.689983
324 2 0.167758 0.437152 0.635161
294 2 0.344939 0.283452 0.671762
73 1 0.44493 0.465101 0.51119
253 1 0.367677 0.29614 0.519996
267 1 0.321467 0.435576 0.579609
65 1 0.400698 0.493239 0.70242
83 1 0.262894 0.365864 0.734377
152 1 0.453938 0.348509 0.64173
245 1 0.593351 0.52109 0.508341
315 2 0.6723 0.309136 0.648047
21 1 0.580486 0.3407 0.734837
40 1 0.577329 0.370613 0.537574
271 1 0.702039 0.431687 0.61202
82 1 0.828779 0.423415 0.523908
7 1 0.989496 0.380319 0.541691
95 1 0.736379 0.311774 0.520469
39 1 0.889458 0.270622 0.593354
67 1 0.867073 0.405881 0.67477
328 2 0.987855 0.455438 0.757888
243 1 0.0516881 0.483335 0.64153
51 1 0.216231 0.549891 0.535709
301 2 0.188531 0.687643 0.728813
258 1 0.0784825 0.730397 0.719948
61 1 0.0891341 0.625397 0.594831
206 1 0.28878 0.76337 0.756592
52 1 0.247666 0.511404 0.684946
161 1 0.258014 0.694517 0.61092
287 1 0.368296 0.57911 0.56441
48 1 0.449781 0.69987 0.572735
171 1 0.391484 0.655602 0.747435
347 2 0.485829 0.573111 0.57248
159 1 0.544754 0.48555 0.645574
247 1 0.601332 0.692966 0.501739
3 1 0.675808 0.61501 0.601533
106 1 0.543195 0.65022 0.681389
350 2 0.707889 0.756405 0.652778
345 2 0.78742 0.524778 0.604865
108 1 0.793862 0.5313 0.744203
217 1 -0.000325958 0.683006 0.471105
74 1 0.819699 0.664989 0.515289
274 1 0.813768 0.670186 0.673897
214 1 0.90725 0.553524 0.592298
172 1 0.933209 0.601802 0.747669
4 1 0.959525 0.731939 0.621098
232 1 0.258747 0.020992 0.734431
263 1 0.131736 0.966189 0.670849
33 1 0.0874445 0.800035 0.555092
270 1 0.196207 0.835685 0.643236
129 1 0.253686 0.829427 0.511186
307 2 0.392649 0.990839 0.74644
302 2 0.480238 0.755616 0.68688
90 1 0.287118 0.94595 0.606235
1 1 0.375678 0.810438 0.640713
124 1 0.49115 0.902379 0.534441
157 1 0.497302 0.90024 0.688773
45 1 0.580814 0.795637 0.603858
339 2 0.619363 0.914854 0.573713
10 1 0.69446 0.887961 0.668624
32 1 0.709981 0.801648 0.533691
167 1 0.721049 0.991648 0.552511
37 1 0.0217082 0.867475 0.682068
211 1 0.932948 0.91172 0.552803
348 2 0.804122 0.891086 0.551191
141 1 0.850181 0.841089 0.66451
28 1 0.0878758 0.122214 0.974888
49 1 0.279973 0.120337 0.914712
34 1 0.167382 0.0242477 0.878655
222 1 0.996149 0.045195 0.875385
240 1 0.0570569 0.202099 0.851335
338 2 0.206437 0.180992 0.813701
93 1 0.328701 0.0269101 0.0445
135 1 0.381704 0.104244 0.789997
260 1 0.311464 0.239335 0.815198
229 1 0.48176 0.0485678 0.938782
312 2 0.403564 0.152984 0.939423
55 1 0.512486 0.187165 0.838068
353 2 0.56394 0.202458 0.963585
200 1 0.598721 0.945393 0.958075
297 2 0.511901 0.235019 0.725249
29 1 0.516395 0.0573829 0.77207
102 1 0.635546 0.0808415 0.866593
346 2 0.692517 0.182254 0.931503
340 2 0.927713 0.0625282 0.973854
120 1 0.768091 0.187499 0.824292
64 1 0.789425 0.0569778 0.894643
182 1 0.894905 0.1072 0.779531
16 1 0.904425 0.175639 0.908708
181 1 0.0185284 0.438235 0.00125157
282 1 0.0945565 0.273323 0.00398356
156 1 0.178148 0.302382 0.857165
140 1 0.145113 0.438913 0.916538
191 1 0.0129254 0.347876 0.850375
43 1 0.416066 0.342032 0.781907
144 1 0.318673 0.369957 0.891561
180 1 0.466912 0.287883 0.927064
57 1 0.381103 0.50601 0.852683
319 2 0.244246 0.467439 0.830772
115 1 0.687032 0.275251 0.0195766
311 2 0.493499 0.439981 0.753273
207 1 0.532477 0.418868 0.873377
178 1 0.641417 0.297202 0.88233
169 1 0.630811 0.487777 0.770759
295 2 0.667673 0.420748 0.875042
137 1 0.738448 0.373521 0.762061
36 1 0.897275 0.268883 0.785366
284 1 0.782432 0.328738 0.912659
130 1 0.936162 0.303313 0.96133
47 1 0.878284 0.427457 0.818774
96 1 0.762039 0.495921 0.906428
184 1 0.0101038 0.517547 0.868041
216 1 0.162053 0.741666 0.855078
187 1 0.117073 0.580415 0.748348
126 1 0.133678 0.602466 0.910607
323 2 0.0502205 0.655991 0.822617
103 1 0.232653 0.657639 0.0290237
289 2 0.200997 0.779451 0.995864
252 1 0.250155 0.60143 0.816735
104 1 0.267688 0.515654 0.946649
331 2 0.435635 0.631157 0.867073
168 1 0.309242 0.69072 0.911101
188 1 0.507949 0.557879 0.793635
162 1 0.287837 0.83822 0.908411
279 1 0.434348 0.771831 0.838666
248 1 0.553487 0.684999 0.874896
201 1 0.72798 0.650366 0.912359
105 1 0.664709 0.635791 0.772269
58 1 0.621689 0.540213 0.916224
125 1 0.895329 0.539899 0.963033
273 1 0.842249 0.685838 0.821152
296 2 0.867187 0.550286 0.845437
281 1 0.962304 0.674168 0.908971
280 1 0.185424 0.881301 0.793858
308 2 0.0404627 0.986014 0.753581
56 1 0.0273152 0.900368 0.850222
18 1 0.139202 0.876402 0.951902
322 2 0.0452081 0.784195 0.880497
357 2 0.0580805 0.980332 0.958153
318 2 0.255465 0.949951 0.970646
12 1 0.356693 0.886643 0.769476
148 1 0.4091 0.890227 0.983388
110 1 0.47642 0.926811 0.844736
122 1 0.328336 0.979765 0.867356
68 1 0.324745 0.769624 0.0591193
19 1 0.508224 0.785428 0.969145
183 1 0.627128 0.929126 0.805333
11 1 0.657047 0.802293 0.898527
75 1 0.587895 0.793941 0.764416
155 1 0.740213 0.782133 0.776086
98 1 0.914887 0.95337 0.756373
237 1 0.76458 0.757693 0.0129751
249 1 0.89301 0.95639 0.932301
153 1 0.93219 0.795328 0.783971
23 1 0.77098 0.911916 0.837501
220 1 0.875016 0.795035 0.927346
ITEM: TIMESTEP
100000
ITEM: NUMBER OF ATOMS
360
ITEM: BOX BOUNDS pp pp pp
0.0000000000000000e+00 6.6943295008216896e+00
0.0000000000000000e+00 6.6943295008216896e+00
0.0000000000000000e+00 6.6943295008216896e+00
ITEM: ATOMS id type xs ys zs
202 1 0.103223 0.135389 0.098763
303 2 0.0902428 0.0415433 0.013747
7 1 0.0758846 0.232785 0.259525
255 1 0.212711 0.217509 0.0112586
222 1 0.221631 0.0692057 0.0230793
69 1 0.379596 0.0854805 0.104086
354 2 0.463189 0.168638 0.157059
24 1 0.233676 0.172295 0.177974
351 2 0.529903 0.0136775 0.0164967
17 1 0.450863 0.272606 0.222267
200 1 0.521827 0.050513 0.136459
166 1 0.645596 0.0347606 0.251205
107 1 0.581611 0.202156 0.226686
334 2 0.601624 0.148861 0.113839
269 1 0.737242 0.172449 0.179344
114 1 0.697163 0.114453 0.0206272
164 1 0.513365 0.151099 0.0199851
144 1 0.98168 0.0432858 0.168311
309 2 0.72223 0.0556996 0.149874
127 1 0.813972 0.0587408 0.261176
121 1 0.842744 0.0776586 0.101555
120 1 0.858055 0.211251 0.0225778
112 1 0.0841386 0.301276 0.112164
346 2 0.138569 0.423887 0.128986
231 1 0.0760754 0.39511 0.239556
49 1 0.232208 0.353187 0.141409
87 1 0.0381893 0.472815 0.0953636
100 1 0.390988 0.236858 0.0865663
282 1 0.306089 0.438174 0.011185
342 2 0.293087 0.320173 0.035378
178 1 0.422863 0.383387 0.123447
207 1 0.455432 0.456549 0.976328
133 1 0.548168 0.286933 0.09192
46 1 0.573722 0.441836 0.0810238
196 1 0.538917 0.468748 0.220755
72 1 0.666517 0.356129 0.174671
267 1 0.707907 0.266768 0.0413447
223 1 0.82285 0.317563 0.155091
320 2 0.764845 0.508535 0.27648
219 1 0.960311 0.195784 0.14488
131 1 0.738563 0.416944 0.0488571
63 1 0.863347 0.464145 0.144127
108 1 0.940626 0.345591 0.0433592
140 1 0.201943 0.533302 0.063686
2 1 0.180251 0.673185 0.0896324
78 1 0.051969 0.608673 0.0276813
118 1 0.122256 0.534383 0.207925
304 2 0.0762733 0.645854 0.167047
116 1 0.133448 0.706332 0.251491
225 1 0.277392 0.561398 0.200965
276 1 0.404258 0.666274 0.240913
110 1 0.426867 0.525988 0.113871
319 2 0.306902 0.629564 0.082585
44 1 0.42798 0.684044 0.0820518
9 1 0.673509 0.525279 0.149458
54 1 0.541951 0.586244 0.0187398
84 1 0.650679 0.670704 0.0836361
92 1 0.697514 0.626864 0.283867
19 1 0.562849 0.627852 0.18884
284 1 0.78977 0.551582 0.0358829
332 2 0.928625 0.540932 0.0525279
62 1 0.809217 0.60477 0.180205
14 1 0.0110185 0.776619 0.0674404
20 1 0.95313 0.583732 0.171726
254 1 0.979891 0.742614 0.211057
181 1 0.895585 0.66362 0.0616176
283 1 0.123268 0.976575 0.112137
13 1 0.148992 0.838512 0.0626802
101 1 0.169598 0.851862 0.209771
244 1 0.268898 0.936352 0.0828362
176 1 0.259127 0.0293113 0.200569
89 1 0.277827 0.738086 0.195813
340 2 0.378638 0.0232158 0.991822
152 1 0.369284 0.832233 0.128276
117 1 0.409667 0.966622 0.203275
93 1 0.299786 0.751194 0.017383
34 1 0.459393 0.929813 0.0611718
71 1 0.522949 0.781689 0.135635
30 1 0.6027 0.907426 0.112199
238 1 0.661969 0.770832 0.212211
8 1 0.68651 0.812508 0.0388315
163 1 0.550776 0.876484 0.249433
88 1 0.739794 0.922172 0.190107
186 1 0.750457 0.954226 0.0261558
277 1 0.790936 0.759454 0.14261
261 1 1.00297 0.943687 0.0320642
194 1 0.876022 0.939184 0.147313
281 1 0.875817 0.844672 0.0134269
210 1 0.0109348 0.884291 0.193785
224 1 0.941577 0.974499 0.300137
209 1 0.103991 0.0894398 0.242311
329 2 0.105658 0.191747 0.389592
211 1 0.213663 0.137319 0.32948
193 1 0.0698963 0.0727522 0.407033
145 1 0.962891 0.134416 0.283074
250 1 0.208292 0.102361 0.483783
147 1 0.491297 0.0754608 0.2819
94 1 0.258798 0.999482 0.378484
66 1 0.357242 0.150571 0.254659
167 1 0.459226 0.214317 0.368578
294 2 0.326436 0.218001 0.368282
146 1 0.366591 0.0953152 0.403855
170 1 0.612962 0.143159 0.362502
305 2 0.73111 0.139084 0.325574
263 1 0.627552 0.0285949 0.508294
308 2 0.504846 0.0390862 0.411946
23 1 0.509438 0.131561 0.497455
41 1 0.763928 0.194749 0.43867
262 1 0.840397 0.228474 0.285274
235 1 0.876934 0.0543189 0.406618
82 1 0.979033 0.220301 0.399959
298 2 0.190058 0.404214 0.27999
50 1 0.233857 0.285547 0.282869
151 1 0.0995703 0.325907 0.376083
76 1 0.110717 0.484282 0.365118
212 1 0.232122 0.398773 0.399071
174 1 0.95379 0.30739 0.235596
355 2 0.951599 0.445905 0.238184
165 1 0.228876 0.248341 0.437364
313 2 0.450275 0.393932 0.25633
157 1 0.357698 0.329154 0.367971
292 2 0.320257 0.272229 0.199913
288 1 0.325847 0.414747 0.244187
77 1 0.45111 0.436997 0.391707
253 1 0.489144 0.331938 0.492056
15 1 0.628388 0.291946 0.463268
124 1 0.6919 0.263635 0.299924
233 1 0.55696 0.326147 0.314301
123 1 0.603996 0.444416 0.467158
356 2 0.724809 0.351137 0.402154
246 1 0.651203 0.457539 0.313597
22 1 0.958864 0.400405 0.36777
59 1 0.755584 0.419924 0.543253
214 1 0.818152 0.383832 0.287956
227 1 0.845829 0.323569 0.440282
306 2 0.15594 0.602387 0.360598
25 1 0.0236257 0.617329 0.312178
258 1 0.0846931 0.674998 0.459839
345 2 0.0332227 0.55093 0.433847
60 1 0.260775 0.533971 0.343721
239 1 0.203261 0.522995 0.48505
79 1 0.42304 0.532086 0.294776
344 2 0.459653 0.557305 0.459814
343 2 0.267399 0.651275 0.296782
51 1 0.345057 0.503636 0.475768
42 1 0.39352 0.653903 0.393581
73 1 0.2582 0.657904 0.463973
113 1 0.564176 0.588177 0.362432
38 1 0.679062 0.732994 0.370464
192 1 0.521876 0.671077 0.470929
139 1 0.689187 0.582619 0.447024
352 2 0.79874 0.605877 0.393854
143 1 0.541528 0.744287 0.309972
158 1 0.785693 0.478331 0.402677
129 1 0.848853 0.698329 0.287899
205 1 0.882241 0.526723 0.30175
160 1 0.922082 0.601299 0.43481
191 1 0.80552 0.732479 0.451668
136 1 0.104728 0.8098 0.360721
195 1 0.117767 0.947577 0.313259
208 1 0.161654 0.956009 0.505999
310 2 0.206669 0.883778 0.405518
349 2 0.979171 0.863831 0.332911
175 1 0.0143848 0.926532 0.436299
280 1 0.214276 0.803515 0.50502
330 2 0.364371 0.0264446 0.302845
247 1 0.252412 0.76136 0.34409
314 2 0.370073 0.781924 0.283282
5 1 0.298126 0.884316 0.267853
111 1 0.431082 0.794707 0.43704
197 1 0.335993 0.909506 0.469468
97 1 0.426588 0.914384 0.352356
32 1 0.591239 0.829431 0.442964
257 1 0.587094 0.959053 0.378365
203 1 0.718764 0.869446 0.324399
86 1 0.724349 0.00688965 0.389922