ITEM: TIMESTEP
0
ITEM: NUMBER OF ATOMS
360
ITEM: BOX BOUNDS pp pp pp
0.0000000000000000e+00 6.6943295008216896e+00
0.0000000000000000e+00 6.6943295008216896e+00
0.0000000000000000e+00 6.6943295008216896e+00
ITEM: ATOMS id type xs ys zs
30 1 0.176677 0.106742 0.18966
136 1 0.195416 0.0205183 0.0419875
117 1 0.0655563 0.131971 0.125911
244 1 0.174815 0.187016 0.0610366
259 1 0.412223 0.218392 0.0483118
50 1 0.313708 0.116288 0.106646
162 1 0.452012 0.0882161 0.0606587
250 1 0.311158 0.0318363 0.193371
122 1 0.533673 0.162811 0.145143
12 1 0.579858 0.11139 0.0182768
16 1 0.631129 0.0301241 0.159387
64 1 0.615944 0.247149 0.108867
196 1 0.730838 0.0787754 0.0385641
71 1 0.757095 0.194767 0.124175
173 1 0.918461 0.234682 0.0582881
271 1 0.943756 0.115115 0.214234
303 2 0.860331 0.0541894 0.0392185
161 1 0.815875 0.0757615 0.190707
100 1 0.119307 0.416733 0.104841
58 1 0.194351 0.472252 0.241751
176 1 0.146128 0.255368 0.206336
142 1 0.052934 0.273137 0.0636174
130 1 0.0467469 0.370526 0.208027
5 1 0.258134 0.405161 0.0860222
298 2 0.48024 0.321538 0.249214
45 1 0.43133 0.450371 0.100419
203 1 0.345022 0.252758 0.15982
40 1 0.306439 0.490532 0.189003
2 1 0.491008 0.298647 0.144007
348 2 0.697919 0.321729 0.0440546
186 1 0.548626 0.423336 0.167301
18 1 0.667615 0.36875 0.140521
146 1 0.641791 0.256091 0.238672
20 1 0.705974 0.434676 0.000336812
103 1 0.810028 0.416262 0.142383
92 1 0.995193 0.418514 0.00238981
266 1 0.948112 0.424017 0.128878
98 1 0.927195 0.279034 0.208487
115 1 0.772846 0.295689 0.233087
319 2 0.889471 0.409254 0.0213499
214 1 0.205437 0.517391 0.0700187
25 1 0.176755 0.627368 0.195571
36 1 0.136217 0.673569 0.0671641
34 1 0.042712 0.525145 0.0983836
290 2 0.24865 0.723403 0.0288763
356 2 0.00307259 0.636545 0.00623578
1 1 0.0406782 0.641035 0.193575
310 2 0.200661 0.722986 0.145406
297 2 0.408805 0.552665 0.171337
150 1 0.33026 0.591346 0.0905066
107 1 0.497548 0.734852 0.0393913
21 1 0.423768 0.655931 0.193117
308 2 0.288668 0.617359 0.218158
90 1 0.306105 0.737129 0.142167
174 1 0.741628 0.561239 0.0761641
289 2 0.583458 0.512179 0.03475
13 1 0.704504 0.647662 0.161309
335 2 0.636797 0.74475 0.208904
113 1 0.508069 0.577063 0.107166
14 1 0.866138 0.665951 0.170148
42 1 0.763738 0.685773 0.0420381
337 2 0.96064 0.519686 0.215878
280 1 0.866014 0.545175 0.0031176
219 1 0.0894591 0.988365 0.169237
281 1 0.0426354 0.770353 0.102074
22 1 0.0460552 0.787585 0.249032
283 1 0.0363521 0.947666 0.0562
220 1 0.186863 0.884157 0.147139
231 1 0.318246 0.963343 0.0497
291 2 0.306599 0.868095 0.207459
238 1 0.453586 0.86884 0.187295
295 2 0.488229 0.982494 0.194899
197 1 0.406306 0.825775 0.0732353
164 1 0.280054 0.848623 0.00146562
254 1 0.479775 0.93312 0.0557331
132 1 0.647084 0.765925 0.0299018
188 1 0.733181 0.817612 0.19084
195 1 0.586431 0.872271 0.147455
88 1 0.676885 0.965798 0.047753
229 1 0.88782 0.955727 0.107516
131 1 0.908898 0.796594 0.0343061
309 2 0.893537 0.772152 0.139513
261 1 0.854091 0.81021 0.238181
275 1 0.779688 0.807518 0.0748257
224 1 0.973782 0.883874 0.158692
328 2 0.913072 0.969546 0.212783
69 1 0.756526 0.938399 0.142511
306 2 0.0434159 0.103545 0.258274
350 2 0.230727 0.179575 0.27216
7 1 0.0720011 0.0143924 0.318728
304 2 0.161924 0.0822905 0.340575
140 1 0.0346227 0.245657 0.289862
97 1 0.122042 0.217438 0.386091
63 1 0.116566 0.0131589 0.436528
352 2 0.263255 0.026821 0.326601
127 1 0.360448 0.115843 0.429756
85 1 0.391285 0.114657 0.290422
46 1 0.428956 0.249304 0.445279
124 1 0.518399 0.161385 0.431789
145 1 0.512165 0.027975 0.456631
114 1 0.712593 0.0580541 0.477337
276 1 0.553235 0.132297 0.315555
330 2 0.617063 0.214217 0.439227
133 1 0.715289 0.0373654 0.279846
194 1 0.810062 0.166044 0.281068
87 1 0.763064 0.1757 0.412141
149 1 0.848434 0.095658 0.474266
177 1 0.946841 0.245111 0.417271
73 1 0.981964 0.121355 0.350441
332 2 0.863029 0.044151 0.290403
336 2 0.959651 0.124082 0.462105
104 1 0.219391 0.294995 0.299881
253 1 0.143505 0.431061 0.494739
227 1 0.123162 0.378065 0.331593
317 2 0.066157 0.382079 0.435071
153 1 0.483864 0.446402 0.306717
218 1 0.252588 0.326007 0.430428
110 1 0.288889 0.442331 0.314324
178 1 0.454563 0.4251 0.460415
344 2 0.378964 0.459956 0.368118
166 1 0.259194 0.492558 0.455043
38 1 0.382889 0.268818 0.322097
185 1 0.54384 0.266318 0.334388
236 1 0.749327 0.403702 0.32071
326 2 0.522035 0.334165 0.429183
217 1 0.687159 0.300361 0.41514
126 1 0.660684 0.424093 0.453971
247 1 0.611463 0.377504 0.325709
191 1 0.904611 0.340976 0.32083
134 1 0.865107 0.483961 0.284357
208 1 0.994503 0.443903 0.331589
242 1 0.949216 0.373598 0.458988
264 1 0.824338 0.362347 0.444834
333 2 0.829668 0.276484 0.356016
237 1 0.223785 0.582893 0.300909
3 1 0.133574 0.545153 0.43326
157 1 0.187804 0.709116 0.469605
240 1 0.119683 0.64515 0.337707
243 1 0.00822456 0.552338 0.425949
288 1 0.0695707 0.536296 0.267842
111 1 0.393497 0.55462 0.324311
235 1 0.268006 0.703544 0.287374
327 2 0.374855 0.720802 0.33044
325 2 0.394463 0.503228 0.477895
28 1 0.431028 0.607402 0.448281
273 1 0.268146 0.635338 0.420764
198 1 0.654101 0.585654 0.264285
320 2 0.60579 0.514454 0.371235
245 1 0.511569 0.674866 0.321599
152 1 0.520529 0.523347 0.48588
354 2 0.713818 0.63951 0.442868
60 1 0.588399 0.662007 0.417505
193 1 0.71054 0.677909 0.32911
155 1 0.505268 0.723938 0.485949
347 2 0.89996 0.696532 0.292853
160 1 0.773833 0.56505 0.369473
359 2 0.872918 0.522009 0.39738
141 1 0.917777 0.642816 0.420287
234 1 0.951133 0.583795 0.313534
171 1 0.833707 0.563404 0.494795
338 2 0.169557 0.770742 0.354348
339 2 0.1354 0.90793 0.283564
278 1 0.0106722 0.885651 0.467161
95 1 0.033278 0.757677 0.39042
269 1 0.151738 0.876028 0.449805
257 1 0.426043 0.986283 0.325176
282 1 0.314599 0.918637 0.304919
246 1 0.293143 0.987336 0.416973
39 1 0.357513 0.842439 0.410389
213 1 0.536667 0.802514 0.261169
48 1 0.536003 0.844407 0.389912
169 1 0.652289 0.808948 0.336688
10 1 0.560298 0.951854 0.280789
226 1 0.637218 0.964675 0.394928
241 1 0.738403 0.901588 0.287349
175 1 0.686917 0.782486 0.464562
99 1 0.709397 0.922206 0.489243
222 1 0.964053 0.877471 0.306099
286 1 0.817138 0.97634 0.393986
147 1 0.912428 0.760992 0.385715
158 1 0.831565 0.751845 0.47608
74 1 0.971195 0.993672 0.425096
143 1 0.888224 0.878043 0.440039
23 1 0.23025 0.166598 0.524546
263 1 0.241161 0.14227 0.656778
260 1 0.15766 0.0466778 0.608398
53 1 0.175993 0.0557495 0.74828
301 2 0.0196457 0.111274 0.673498
35 1 0.100338 0.156609 0.532237
228 1 0.0477124 0.229603 0.644866
267 1 0.477465 0.0710499 0.589161
204 1 0.381499 0.0962493 0.694384
9 1 0.415175 0.19362 0.585039
358 2 0.313442 0.0581141 0.573425
168 1 0.398559 0.224534 0.737966
15 1 0.612162 0.00543182 0.565005
26 1 0.531625 0.0107261 0.703118
76 1 0.507347 0.218305 0.675529
232 1 0.570038 0.158339 0.570842
137 1 0.711494 0.238643 0.533207
144 1 0.727487 0.140112 0.611173
357 2 0.645406 0.229325 0.646955
138 1 0.99143 0.10246 0.555791
51 1 0.753568 0.233576 0.718268
116 1 0.886774 0.148889 0.60368
77 1 0.998739 0.00566246 0.722502
300 2 0.865535 0.248402 0.69162
285 1 0.861369 0.0935178 0.740639
120 1 0.0878964 0.304969 0.54349
202 1 0.180398 0.287063 0.712391
318 2 0.190531 0.364934 0.593961
209 1 0.0118673 0.474997 0.539128
55 1 0.132598 0.442642 0.672086
255 1 0.00646181 0.334264 0.724638
19 1 0.00250095 0.462989 0.684045
83 1 0.332876 0.354406 0.661765
163 1 0.471307 0.35985 0.584808
165 1 0.330145 0.310915 0.532626
190 1 0.435083 0.42308 0.700466
313 2 0.458614 0.489884 0.598038
56 1 0.337498 0.482894 0.557971
79 1 0.274413 0.461052 0.735971
287 1 0.579048 0.323189 0.51203
312 2 0.588213 0.324004 0.657336
105 1 0.573688 0.452341 0.662609
322 2 0.604876 0.464556 0.544957
316 2 0.688847 0.358388 0.549868
307 2 0.714853 0.373914 0.7245
268 1 0.925171 0.294193 0.596833
284 1 0.770761 0.46562 0.666985
67 1 0.86104 0.440701 0.540509
321 2 0.905024 0.429257 0.642254
32 1 0.872379 0.366714 0.749521
272 1 0.782322 0.339121 0.639691
44 1 0.0659729 0.597536 0.5614
101 1 0.209091 0.520587 0.613532
81 1 0.217025 0.613113 0.71784
179 1 0.113204 0.677026 0.647229
212 1 0.356734 0.558897 0.655751
343 2 0.351584 0.607734 0.550625
125 1 0.421584 0.690025 0.704212
274 1 0.287269 0.689305 0.598672
75 1 0.51709 0.592415 0.598283
172 1 0.698201 0.542646 0.543837
277 1 0.633483 0.675776 0.54011
331 2 0.658146 0.603777 0.689981
106 1 0.573866 0.72829 0.645477
66 1 0.558531 0.630252 0.748138
292 2 0.702903 0.729538 0.696848
159 1 0.948568 0.704909 0.55135
345 2 0.868504 0.704489 0.65043
102 1 0.940061 0.593615 0.656865
11 1 0.780686 0.635322 0.594207
207 1 0.97074 0.723027 0.681619
108 1 0.236582 0.758003 0.725679
262 1 0.221001 0.937705 0.562429
57 1 0.0917146 0.769771 0.742884
180 1 0.0654313 0.947678 0.60766
170 1 0.0492376 0.80036 0.601438
65 1 0.134648 0.938339 0.722895
192 1 0.395688 0.972416 0.517266
182 1 0.324522 0.976895 0.675318
6 1 0.468109 0.930003 0.612333
323 2 0.428488 0.753891 0.605555
61 1 0.354629 0.848485 0.618127
148 1 0.251147 0.815503 0.53454
4 1 0.47006 0.823301 0.702317
346 2 0.558302 0.843906 0.661947
135 1 0.5598 0.853982 0.543313
78 1 0.665785 0.889914 0.636368
47 1 0.729463 0.788608 0.596282
33 1 0.85797 0.989795 0.570765
8 1 0.858452 0.805231 0.718601
340 2 0.764656 0.956741 0.64769
360 2 0.771862 0.975617 0.742904
351 2 0.917481 0.841918 0.553979
211 1 0.877991 0.949676 0.697766
68 1 0.978517 0.851416 0.707739
112 1 0.0392985 0.242897 0.907697
167 1 0.103109 0.0548157 0.866503
187 1 0.0171436 0.0705351 0.998217
215 1 0.16983 0.154146 0.937375
279 1 0.188788 0.165981 0.805597
329 2 0.0891942 0.171769 0.850427
24 1 0.425531 0.0218053 0.844774
123 1 0.277278 0.211225 0.996427
302 2 0.444102 0.10833 0.951167
156 1 0.329123 0.126246 0.841869
86 1 0.322237 0.0491017 0.953197
221 1 0.524807 0.235615 0.975708
311 2 0.562062 0.125172 0.912644
52 1 0.64455 0.192624 0.938502
129 1 0.602872 0.0496132 0.835938
96 1 0.695643 0.0844282 0.75653
239 1 0.512967 0.160867 0.807299
305 2 0.664856 0.0683611 0.933133
183 1 0.937945 0.0904937 0.857353
299 2 0.815694 0.143449 0.836075
128 1 0.894362 0.193505 0.788227
200 1 0.81913 0.140967 0.952377
252 1 0.111839 0.463255 0.957235
265 1 0.238925 0.402424 0.937957
296 2 0.111158 0.356685 0.876782
94 1 0.206915 0.283406 0.913258
248 1 0.0970802 0.431404 0.793332
223 1 0.408298 0.356233 0.970995
84 1 0.366074 0.492544 0.991346
119 1 0.324383 0.311876 0.862641
118 1 0.466642 0.493818 0.925298
80 1 0.597295 0.444655 0.912162
314 2 0.65027 0.317459 0.9136
72 1 0.505196 0.37218 0.852907
206 1 0.633637 0.41969 0.791293
49 1 0.57113 0.284175 0.777443
62 1 0.778638 0.251418 0.864357
181 1 0.941162 0.333297 0.893348
199 1 0.919745 0.450434 0.851051
154 1 0.772567 0.416669 0.84069
355 2 0.156222 0.605965 0.96744
349 2 0.018751 0.682512 0.791494
54 1 0.174669 0.533808 0.85808
256 1 0.112327 0.67104 0.843658
293 2 0.38683 0.584877 0.927926
270 1 0.343691 0.647059 0.808576
205 1 0.278402 0.640853 0.917186
342 2 0.359283 0.521156 0.852603
109 1 0.487588 0.749738 0.912852
324 2 0.281972 0.565263 0.995088
201 1 0.381364 0.680394 0.986069
70 1 0.440012 0.558954 0.790774
139 1 0.498649 0.613045 0.933005
29 1 0.632498 0.595934 0.970964
82 1 0.648808 0.555849 0.834388
37 1 0.734086 0.666964 0.787267
210 1 0.741381 0.741026 0.921503
341 2 0.584751 0.645605 0.876319
216 1 0.998627 0.550267 0.796983
315 2 0.84154 0.519982 0.753104
41 1 0.756283 0.562301 0.919304
184 1 0.887558 0.704261 0.823071
121 1 0.883665 0.67435 0.9668
233 1 0.111849 0.758154 0.957535
230 1 0.183755 0.925886 0.90024
334 2 0.114135 0.859738 0.86524
91 1 0.222377 0.776395 0.881723
294 2 0.0434465 0.965987 0.817306
249 1 0.382325 0.89676 0.938518
93 1 0.293048 0.97967 0.819818
17 1 0.332637 0.851413 0.761439
151 1 0.569718 0.987307 0.950633
258 1 0.686181 0.915858 0.772509
353 2 0.53975 0.753702 0.768586
251 1 0.634261 0.776867 0.827158
27 1 0.615823 0.86196 0.941635
189 1 0.70883 0.933897 0.899776
31 1 0.508399 0.896613 0.848307
89 1 0.811149 0.912954 0.992558
225 1 0.801855 0.822535 0.850705
43 1 0.928898 0.917188 0.929329
59 1 0.981702 0.793537 0.870595
ITEM: TIMESTEP
10000
ITEM: NUMBER OF ATOMS
360
ITEM: BOX BOUNDS pp pp pp
0.0000000000000000e+00 6.6943295008216896e+00
0.0000000000000000e+00 6.6943295008216896e+00
0.0000000000000000e+00 6.6943295008216896e+00
ITEM: ATOMS id type xs ys zs
130 1 0.00464175 0.145266 0.156704
230 1 0.0393536 0.226493 0.0256376
291 2 0.148553 0.0791452 0.174579
24 1 0.143009 0.219634 0.139741
220 1 0.0942907 0.0976124 0.0380968
265 1 0.291526 0.224727 0.182361
119 1 0.362118 0.0786646 0.15111
64 1 0.472032 0.132555 0.0924076
239 1 0.255432 0.115419 0.0530919
188 1 0.563982 0.0394182 0.0238994
259 1 0.599265 0.191471 0.0405012
185 1 0.621031 0.159513 0.179915
333 2 0.708716 0.221609 0.135532
196 1 0.543445 0.0261792 0.21512
283 1 0.690583 0.0557719 0.105991
352 2 0.685038 0.052188 0.244593
356 2 0.984016 0.0467526 0.0797676
35 1 0.869313 0.221943 0.100759
146 1 0.770205 0.131108 0.19939
275 1 0.86162 0.0254031 0.138129
71 1 0.764446 0.159148 0.0274736
5 1 0.20392 0.34085 0.190615
94 1 0.0990672 0.365432 0.0781501
45 1 0.24067 0.293308 0.0280701
25 1 0.238809 0.458912 0.099806
297 2 0.238314 0.465023 0.244023
23 1 0.0592593 0.3469 0.2439
355 2 0.152872 0.495854 0.00745126
214 1 0.370337 0.461706 0.0143836
80 1 0.362931 0.444997 0.185118
203 1 0.424488 0.280867 0.234654
72 1 0.393972 0.325835 0.0983763
110 1 0.484894 0.496161 0.128402
298 2 0.48033 0.401144 0.0407034
221 1 0.543821 0.311397 0.131868
14 1 0.616012 0.419779 0.0641654
32 1 0.715435 0.304887 0.0302207
152 1 0.671588 0.383806 0.20821
317 2 0.998067 0.294301 0.143487
120 1 0.953515 0.4158 0.15922
337 2 0.838972 0.353362 0.0433385
191 1 0.757092 0.451965 0.056919
18 1 0.806492 0.333947 0.175601
326 2 0.836335 0.47982 0.159775
332 2 0.921998 0.270001 0.229482
92 1 0.0316837 0.509023 0.0485564
208 1 0.110373 0.504451 0.176674
296 2 0.0987749 0.640738 0.158337
288 1 0.0176163 0.717534 0.217616
233 1 0.14411 0.609861 0.0498203
309 2 0.161479 0.721832 0.235617
90 1 0.241357 0.594194 0.159696
164 1 0.0639042 0.745775 0.0658878
153 1 0.378886 0.576271 0.242981
238 1 0.342486 0.718273 0.176062
107 1 0.480167 0.73725 0.065938
197 1 0.319049 0.715661 0.0191619
40 1 0.402455 0.605337 0.0655003
115 1 0.703351 0.522736 0.190601
247 1 0.571571 0.709467 0.186059
252 1 0.640504 0.565064 0.0560618
193 1 0.743178 0.711982 0.163281
320 2 0.553095 0.527051 0.220814
27 1 0.637671 0.745415 0.0517079
266 1 0.967268 0.569666 0.170518
256 1 0.947777 0.658228 0.0691567
347 2 0.875678 0.728863 0.148045
236 1 0.819263 0.605944 0.133964
216 1 0.881959 0.507389 0.038465
282 1 0.24106 0.981643 0.135624
136 1 0.208741 0.779307 0.0963263
36 1 0.0970897 0.926816 0.0372799
198 1 0.111929 0.836491 0.217676
262 1 0.0699396 0.984339 0.167367
86 1 0.357301 0.954236 0.245538
162 1 0.456517 0.972336 0.107697
122 1 0.338377 0.857845 0.0795992
305 2 0.420522 0.834832 0.159857
170 1 0.263873 0.849776 0.20651
339 2 0.408243 0.946003 0.00807274
213 1 0.54923 0.853643 0.176873
16 1 0.677033 0.900931 0.0815079
335 2 0.669253 0.803981 0.158827
109 1 0.52225 0.879661 0.019117
295 2 0.763638 0.943931 0.150219
42 1 0.791078 0.790514 0.0527435
234 1 0.981192 0.853867 0.140069
141 1 0.838305 0.837542 0.215021
59 1 0.948918 0.860239 0.00127322
229 1 0.816243 0.930143 0.0175331
176 1 0.0944607 0.0763291 0.280823
165 1 0.211771 0.173918 0.448345
336 2 0.113911 0.120408 0.399033
219 1 0.0601106 0.232084 0.429761
30 1 0.0195324 0.0198735 0.458059
231 1 0.247805 0.0701565 0.288242
140 1 0.00432087 0.208199 0.294155
223 1 0.466996 0.139479 0.260349
289 2 0.351008 0.125649 0.271551
12 1 0.385323 0.0605499 0.384395
304 2 0.460594 0.0153809 0.308914
276 1 0.491658 0.179474 0.405346
104 1 0.303102 0.210794 0.341164
163 1 0.368203 0.220277 0.475421
161 1 0.631224 0.141812 0.327826
144 1 0.720764 0.192301 0.454537
7 1 0.563357 0.00612476 0.37991
117 1 0.783146 0.0952383 0.363106
133 1 0.902836 0.0926409 0.265487
116 1 0.909062 0.109655 0.42326
217 1 0.836926 0.214632 0.312167
340 2 0.942693 0.232629 0.415668
166 1 0.15229 0.43553 0.337167
227 1 0.167409 0.2526 0.301457
242 1 0.0240313 0.385845 0.420654
240 1 0.00221547 0.480405 0.297116
218 1 0.247841 0.326738 0.425693
58 1 0.320784 0.37765 0.308848
212 1 0.435796 0.319351 0.38541
46 1 0.405811 0.480897 0.361157
321 2 0.345338 0.398159 0.443879
87 1 0.705115 0.258129 0.274235
38 1 0.565434 0.277064 0.289397
226 1 0.575103 0.291348 0.482819
186 1 0.528712 0.413922 0.250507
124 1 0.549731 0.419151 0.403637
137 1 0.712198 0.345985 0.463173
308 2 0.652764 0.368398 0.334837
51 1 0.708455 0.487472 0.492981
272 1 0.86106 0.300091 0.471347
103 1 0.774073 0.418298 0.335549
63 1 0.916952 0.36661 0.318191
194 1 0.884065 0.466576 0.435811
34 1 0.0688672 0.743408 0.379933
237 1 0.107663 0.611489 0.313492
147 1 0.0569715 0.525839 0.425259
342 2 0.174441 0.569551 0.414861
253 1 0.294764 0.51844 0.479673
1 1 0.256493 0.674574 0.456304
273 1 0.26342 0.584636 0.331341
192 1 0.282525 0.729986 0.303383
331 2 0.375294 0.672707 0.341707
157 1 0.391677 0.634824 0.449457
22 1 0.496784 0.718718 0.402203
132 1 0.520024 0.619417 0.280085
245 1 0.646154 0.506327 0.333727
274 1 0.530974 0.569933 0.433464
113 1 0.64759 0.663138 0.32756
134 1 0.607059 0.712041 0.49484
327 2 0.653854 0.581113 0.437333
95 1 0.873168 0.682912 0.290118
2 1 0.779825 0.606279 0.408021
351 2 0.983561 0.621995 0.291653
97 1 0.943684 0.610949 0.412098
359 2 0.760164 0.616536 0.265185
160 1 0.871168 0.538377 0.280022
344 2 0.873066 0.667676 0.494812
246 1 0.176247 0.987839 0.388665
224 1 0.0596535 0.939522 0.328213
358 2 0.16989 0.934826 0.272532
235 1 0.178316 0.832312 0.38465
143 1 0.0128192 0.855332 0.444598
318 2 0.247275 0.851207 0.492631
111 1 0.450137 0.762876 0.268671
310 2 0.357755 0.849455 0.321114
250 1 0.482862 0.898286 0.307131
85 1 0.319978 0.928589 0.399481
26 1 0.375545 0.790248 0.43507
148 1 0.482956 0.897231 0.45232
314 2 0.565382 0.781499 0.288624
10 1 0.708758 0.790084 0.282261
60 1 0.619228 0.823435 0.392059
69 1 0.660876 0.930974 0.255012
158 1 0.730361 0.946697 0.383961
222 1 0.745623 0.760345 0.462669
328 2 0.953801 0.965724 0.257346
102 1 0.884673 0.772932 0.433056
261 1 0.814229 0.963045 0.266023
149 1 0.951138 0.846679 0.304475
345 2 0.794463 0.840376 0.354062
73 1 0.914911 0.969413 0.374923
33 1 0.842447 0.911702 0.478693
350 2 0.212458 0.00205117 0.516989
53 1 0.122372 0.100667 0.527581
83 1 0.0639916 0.248004 0.652281
77 1 0.157206 0.00662108 0.644687
167 1 0.0360406 0.104201 0.663012
156 1 0.21154 0.180521 0.649921
145 1 0.446541 0.101059 0.514181
263 1 0.29596 0.0896878 0.527526
232 1 0.447397 0.0467828 0.670346
180 1 0.3781 0.181902 0.620089
15 1 0.303065 0.0465556 0.68708
76 1 0.495995 0.192106 0.74228
195 1 0.606263 0.091947 0.500671
260 1 0.559349 0.18113 0.60145
168 1 0.71041 0.140736 0.60402
52 1 0.625389 0.0232159 0.647484
189 1 0.748693 0.0558838 0.729661
114 1 0.76915 0.0434647 0.500339
301 2 0.890043 0.022861 0.501895
306 2 0.773002 0.00841927 0.606537
138 1 0.962366 0.196244 0.540101
299 2 0.835188 0.156151 0.703112
49 1 0.927215 0.246606 0.671202
241 1 0.875394 0.0775508 0.618158
307 2 0.8287 0.163078 0.509954
360 2 0.973244 0.0113497 0.701084
209 1 0.138928 0.442353 0.504175
101 1 0.107778 0.42014 0.646147
268 1 0.135912 0.302274 0.525009
56 1 0.216423 0.31967 0.677578
313 2 0.452353 0.330734 0.507324
330 2 0.25374 0.270715 0.548401
81 1 0.26274 0.461044 0.629772
178 1 0.344914 0.35071 0.571622
123 1 0.497522 0.319753 0.630939
190 1 0.418121 0.465193 0.533941
70 1 0.375442 0.481854 0.725088
118 1 0.382828 0.283398 0.726495
9 1 0.640814 0.313597 0.730266
277 1 0.640948 0.374384 0.580813
280 1 0.513471 0.451036 0.701525
292 2 0.634315 0.427929 0.728378
126 1 0.776917 0.27113 0.744337
177 1 0.981019 0.351065 0.561995
287 1 0.799157 0.25353 0.593551
128 1 0.822429 0.391117 0.581789
62 1 0.895774 0.377084 0.714098
316 2 0.920491 0.463118 0.633956
19 1 0.17373 0.54479 0.714718
264 1 0.0086935 0.548346 0.582644
3 1 0.132159 0.745679 0.509143
243 1 0.196473 0.594272 0.574637
171 1 0.100585 0.649728 0.655413
67 1 0.00189145 0.517935 0.725032
254 1 0.233805 0.701665 0.67214
105 1 0.40437 0.600352 0.591925
179 1 0.373383 0.722782 0.706044
293 2 0.303121 0.576973 0.673938
270 1 0.477485 0.713068 0.550716
39 1 0.556498 0.513835 0.579861
175 1 0.72143 0.623278 0.568608
325 2 0.581569 0.560468 0.713709
169 1 0.571322 0.656257 0.633539
37 1 0.717297 0.500027 0.64688
75 1 0.691478 0.63084 0.716528
211 1 0.957271 0.648764 0.690288
315 2 0.822832 0.666736 0.635247
74 1 0.860435 0.552565 0.561521
44 1 0.841926 0.556369 0.700942
207 1 0.991513 0.680732 0.527007
50 1 0.142239 0.91175 0.524879
65 1 0.227853 0.853703 0.626991
286 1 0.0643987 0.893505 0.709263
108 1 0.32275 0.759974 0.558219
127 1 0.337022 0.94944 0.545128
267 1 0.440121 0.855572 0.617607
6 1 0.33029 0.8714 0.732557
172 1 0.714084 0.767501 0.640643
343 2 0.544081 0.766948 0.716856
357 2 0.523566 0.960358 0.567944
48 1 0.584138 0.82216 0.60745
106 1 0.540664 0.928241 0.712392
135 1 0.633353 0.930506 0.515219
251 1 0.722982 0.91807 0.668535
28 1 0.837798 0.770731 0.578631
269 1 0.974528 0.961883 0.58338
61 1 0.998987 0.795307 0.62489
338 2 0.919866 0.85564 0.569418
354 2 0.828552 0.816945 0.696515
78 1 0.865717 0.968763 0.732292
300 2 0.0469594 0.162991 0.769091
285 1 0.167129 0.0934593 0.774189
228 1 0.166055 0.232344 0.797028
202 1 0.197442 0.185319 0.93549
244 1 0.148942 0.0329624 0.905844
142 1 0.0354377 0.135381 0.897346
225 1 0.0314162 0.0125161 0.81086
302 2 0.279557 0.139739 0.767172
151 1 0.413622 0.0682375 0.971263
68 1 0.293466 0.0801468 0.892184
204 1 0.316508 0.224077 0.849004
31 1 0.40201 0.0917835 0.797059
20 1 0.379341 0.220284 0.985218
348 2 0.44755 0.236229 0.855209
334 2 0.669974 0.179887 0.933025
322 2 0.545215 0.0551883 0.752365
183 1 0.532473 0.14426 0.911893
346 2 0.582793 0.041893 0.891297
258 1 0.716435 0.030725 0.952923
206 1 0.657683 0.154527 0.807716
100 1 0.899759 0.124389 0.970802
278 1 0.925695 0.111869 0.766292
43 1 0.801075 0.153307 0.861556
173 1 0.844975 0.017651 0.875016
55 1 0.0742679 0.364187 0.777945
112 1 0.243499 0.428852 0.94822
215 1 0.0938954 0.307545 0.919687
279 1 0.249814 0.418805 0.786351
324 2 0.245687 0.306102 0.908013
181 1 0.0674777 0.455971 0.916561
84 1 0.373193 0.346859 0.889811
311 2 0.448629 0.392866 0.785925
150 1 0.424205 0.498228 0.859991
13 1 0.516608 0.293786 0.982798
312 2 0.593877 0.250077 0.851313
271 1 0.7115 0.303679 0.870051
82 1 0.557715 0.379559 0.856921
29 1 0.659837 0.466972 0.924022
200 1 0.980031 0.252501 0.837218
255 1 0.968786 0.351604 0.98889
98 1 0.863115 0.266732 0.945838
284 1 0.770518 0.415692 0.768711
303 2 0.965894 0.375083 0.878075
154 1 0.833823 0.409264 0.925183
79 1 0.194051 0.541937 0.876064
91 1 6.58449e-05 0.743395 0.880899
248 1 0.0415131 0.60761 0.943341
57 1 0.0697234 0.629907 0.799267
17 1 0.190139 0.689958 0.914536
290 2 0.174119 0.665606 0.764373
125 1 0.477805 0.622324 0.754938
54 1 0.318469 0.606542 0.800267
205 1 0.300583 0.570644 0.962962
201 1 0.432897 0.651067 0.919906
174 1 0.506226 0.517044 0.987553
341 2 0.689211 0.523825 0.787688
353 2 0.58697 0.662441 0.810042
41 1 0.598006 0.634374 0.933357
47 1 0.563957 0.524355 0.82912
139 1 0.728525 0.706754 0.863879
121 1 0.774027 0.649754 0.993655
11 1 0.825572 0.714174 0.756013
199 1 0.914627 0.502436 0.840015
349 2 0.939493 0.62617 0.798834
319 2 0.960306 0.502001 0.952226
184 1 0.898623 0.631974 0.920466
210 1 0.786699 0.557185 0.858212
294 2 0.0468025 0.750626 0.753806
257 1 0.23424 0.819624 0.961357
187 1 0.211046 0.945575 0.780977
329 2 0.247221 0.847853 0.845314
249 1 0.125795 0.863939 0.875694
159 1 0.161388 0.7819 0.759008
93 1 0.260761 0.967323 0.994614
323 2 0.414999 0.956314 0.764644
4 1 0.316849 0.753395 0.847337
21 1 0.40117 0.82644 0.952489
182 1 0.350472 0.926801 0.880626
155 1 0.458099 0.827607 0.802051
96 1 0.665177 0.960598 0.824156
99 1 0.655238 0.809544 0.777497
129 1 0.505552 0.951077 0.873762
66 1 0.553797 0.775233 0.905375
88 1 0.696857 0.869629 0.945619
281 1 0.982471 0.998543 0.954499
89 1 0.949253 0.853887 0.790111
131 1 0.859588 0.776836 0.922286
8 1 0.80358 0.87876 0.831981
