
Host: cs034.hpc.nyu.edu

Timers On : Thu Nov 30 14:47:15 2023
Timers Off: Thu Nov 30 14:47:16 2023

Wall Time:        0.43 seconds

                                                       Time (seconds)
Module                                       User      System        Wall        Calls

--------------------------------------------------------------------------------------

**************************************************************************************
